 Entering Link 1 = C:\G09W\l1.exe PID=     18624.
  
 Copyright (c) 1988,1990,1992,1993,1995,1998,2003,2009,2011,
            Gaussian, Inc.  All Rights Reserved.
  
 This is part of the Gaussian(R) 09 program.  It is based on
 the Gaussian(R) 03 system (copyright 2003, Gaussian, Inc.),
 the Gaussian(R) 98 system (copyright 1998, Gaussian, Inc.),
 the Gaussian(R) 94 system (copyright 1995, Gaussian, Inc.),
 the Gaussian 92(TM) system (copyright 1992, Gaussian, Inc.),
 the Gaussian 90(TM) system (copyright 1990, Gaussian, Inc.),
 the Gaussian 88(TM) system (copyright 1988, Gaussian, Inc.),
 the Gaussian 86(TM) system (copyright 1986, Carnegie Mellon
 University), and the Gaussian 82(TM) system (copyright 1983,
 Carnegie Mellon University). Gaussian is a federally registered
 trademark of Gaussian, Inc.
  
 This software contains proprietary and confidential information,
 including trade secrets, belonging to Gaussian, Inc.
  
 This software is provided under written license and may be
 used, copied, transmitted, or stored only in accord with that
 written license.
  
 The following legend is applicable only to US Government
 contracts under FAR:
  
                    RESTRICTED RIGHTS LEGEND
  
 Use, reproduction and disclosure by the US Government is
 subject to restrictions as set forth in subparagraphs (a)
 and (c) of the Commercial Computer Software - Restricted
 Rights clause in FAR 52.227-19.
  
 Gaussian, Inc.
 340 Quinnipiac St., Bldg. 40, Wallingford CT 06492
  
  
 ---------------------------------------------------------------
 Warning -- This program may not be used in any manner that
 competes with the business of Gaussian, Inc. or will provide
 assistance to any competitor of Gaussian, Inc.  The licensee
 of this program is prohibited from giving any competitor of
 Gaussian, Inc. access to this program.  By using this program,
 the user acknowledges that Gaussian, Inc. is engaged in the
 business of creating and licensing software in the field of
 computational chemistry and represents and warrants to the
 licensee that it is not a competitor of Gaussian, Inc. and that
 it will not use this program in any manner prohibited above.
 ---------------------------------------------------------------
  

 Cite this work as:
 Gaussian 09, Revision C.01,
 M. J. Frisch, G. W. Trucks, H. B. Schlegel, G. E. Scuseria, 
 M. A. Robb, J. R. Cheeseman, G. Scalmani, V. Barone, B. Mennucci, 
 G. A. Petersson, H. Nakatsuji, M. Caricato, X. Li, H. P. Hratchian, 
 A. F. Izmaylov, J. Bloino, G. Zheng, J. L. Sonnenberg, M. Hada, 
 M. Ehara, K. Toyota, R. Fukuda, J. Hasegawa, M. Ishida, T. Nakajima, 
 Y. Honda, O. Kitao, H. Nakai, T. Vreven, J. A. Montgomery, Jr., 
 J. E. Peralta, F. Ogliaro, M. Bearpark, J. J. Heyd, E. Brothers, 
 K. N. Kudin, V. N. Staroverov, T. Keith, R. Kobayashi, J. Normand, 
 K. Raghavachari, A. Rendell, J. C. Burant, S. S. Iyengar, J. Tomasi, 
 M. Cossi, N. Rega, J. M. Millam, M. Klene, J. E. Knox, J. B. Cross, 
 V. Bakken, C. Adamo, J. Jaramillo, R. Gomperts, R. E. Stratmann, 
 O. Yazyev, A. J. Austin, R. Cammi, C. Pomelli, J. W. Ochterski, 
 R. L. Martin, K. Morokuma, V. G. Zakrzewski, G. A. Voth, 
 P. Salvador, J. J. Dannenberg, S. Dapprich, A. D. Daniels, 
 O. Farkas, J. B. Foresman, J. V. Ortiz, J. Cioslowski, 
 and D. J. Fox, Gaussian, Inc., Wallingford CT, 2010.
 
 ******************************************
 Gaussian 09:  EM64W-G09RevC.01 23-Sep-2011
                08-Mar-2013 
 ******************************************
 %Chk=asparagine.chk
 %Mem=32GB
 %NProcShared=12
 Will use up to   12 processors via shared memory.
 ------------------------------------------------------------
 #p opt=tight m06/cc-pvtz scf=tight integral=(grid=ultrafine)
 ------------------------------------------------------------
 1/7=10,14=-1,18=20,19=15,26=3,38=1/1,3;
 2/9=110,12=2,17=6,18=5,40=1/2;
 3/5=16,6=1,11=2,16=1,25=1,30=1,71=1,74=-54,75=-5/1,2,3;
 4//1;
 5/5=2,32=2,38=5/2;
 6/7=2,8=2,9=2,10=2,28=1/1;
 7//1,2,3,16;
 1/7=10,14=-1,18=20,19=15/3(2);
 2/9=110/2;
 99//99;
 2/9=110/2;
 3/5=16,6=1,11=2,16=1,25=1,30=1,71=1,74=-54,75=-5/1,2,3;
 4/5=5,16=3/1;
 5/5=2,32=2,38=5/2;
 7//1,2,3,16;
 1/7=10,14=-1,18=20,19=15/3(-5);
 2/9=110/2;
 6/7=2,8=2,9=2,10=2,19=2,28=1/1;
 99/9=1/99;
 Leave Link    1 at Fri Mar 08 12:33:23 2013, MaxMem= 4294967296 cpu:       0.0
 (Enter C:\G09W\l101.exe)
 ---------------------
 Geometry optimisation
 ---------------------
 Charge =  0 Multiplicity = 1
 Symbolic Z-Matrix:
 C                    -2.352     0.90619   1.58062 
 C                    -1.40105   1.8828    2.29723 
 H                    -1.60692   1.87523   3.34721 
 H                    -1.54746   2.87032   1.91218 
 C                     0.05691   1.44901   2.05685 
 H                     0.38747   1.81912   1.10888 
 C                     0.95285   2.0201    3.17164 
 N                    -1.96113  -0.49901   1.39745 
 H                    -2.27074  -1.03611   2.1821 
 H                    -2.38091  -0.85569   0.56285 
 N                     0.13925  -0.01865   2.06562 
 H                    -0.16968  -0.36455   2.95158 
 O                    -3.46365   1.31108   1.15184 
 O                     0.44873   2.72191   4.08646 
 N                     2.39694   1.7454    3.16711 
 H                     2.57838   0.90697   3.68103 
 C                     3.11118   2.86774   3.7925 
 H                     2.86414   2.91252   4.83263 
 H                     4.16589   2.72513   3.68224 
 H                     2.82341   3.78251   3.31786 
 C                     1.53094  -0.43272   1.83617 
 C                     2.05336  -1.74753   2.44442 
 H                     1.88952  -2.54929   1.75505 
 H                     3.10072  -1.65693   2.64371 
 H                     1.53282  -1.94989   3.3571 
 O                     2.29541   0.28719   1.14271 
 
 NAtoms=     26 NQM=        0 NQMF=       0 NMMI=     26 NMMIF=      0
                NMic=       0 NMicF=      0.
                    Isotopes and Nuclear Properties:
 (Nuclear quadrupole moments (NQMom) in fm**2, nuclear magnetic moments (NMagM)
  in nuclear magnetons)

  Atom         1           2           3           4           5           6           7           8           9          10
 IAtWgt=          12          12           1           1          12           1          12          14           1           1
 AtmWgt=  12.0000000  12.0000000   1.0078250   1.0078250  12.0000000   1.0078250  12.0000000  14.0030740   1.0078250   1.0078250
 NucSpn=           0           0           1           1           0           1           0           2           1           1
 AtZEff=   0.0000000   0.0000000   0.0000000   0.0000000   0.0000000   0.0000000   0.0000000   0.0000000   0.0000000   0.0000000
 NQMom=    0.0000000   0.0000000   0.0000000   0.0000000   0.0000000   0.0000000   0.0000000   2.0440000   0.0000000   0.0000000
 NMagM=    0.0000000   0.0000000   2.7928460   2.7928460   0.0000000   2.7928460   0.0000000   0.4037610   2.7928460   2.7928460

  Atom        11          12          13          14          15          16          17          18          19          20
 IAtWgt=          14           1          16          16          14           1          12           1           1           1
 AtmWgt=  14.0030740   1.0078250  15.9949146  15.9949146  14.0030740   1.0078250  12.0000000   1.0078250   1.0078250   1.0078250
 NucSpn=           2           1           0           0           2           1           0           1           1           1
 AtZEff=   0.0000000   0.0000000   0.0000000   0.0000000   0.0000000   0.0000000   0.0000000   0.0000000   0.0000000   0.0000000
 NQMom=    2.0440000   0.0000000   0.0000000   0.0000000   2.0440000   0.0000000   0.0000000   0.0000000   0.0000000   0.0000000
 NMagM=    0.4037610   2.7928460   0.0000000   0.0000000   0.4037610   2.7928460   0.0000000   2.7928460   2.7928460   2.7928460

  Atom        21          22          23          24          25          26
 IAtWgt=          12          12           1           1           1          16
 AtmWgt=  12.0000000  12.0000000   1.0078250   1.0078250   1.0078250  15.9949146
 NucSpn=           0           0           1           1           1           0
 AtZEff=   0.0000000   0.0000000   0.0000000   0.0000000   0.0000000   0.0000000
 NQMom=    0.0000000   0.0000000   0.0000000   0.0000000   0.0000000   0.0000000
 NMagM=    0.0000000   0.0000000   2.7928460   2.7928460   2.7928460   0.0000000
 Leave Link  101 at Fri Mar 08 12:33:25 2013, MaxMem= 4294967296 cpu:       2.0
 (Enter C:\G09W\l103.exe)

 GradGradGradGradGradGradGradGradGradGradGradGradGradGradGradGradGradGrad
 Berny optimization.
 Initialization pass.
                           ----------------------------
                           !    Initial Parameters    !
                           ! (Angstroms and Degrees)  !
 --------------------------                            --------------------------
 ! Name  Definition              Value          Derivative Info.                !
 --------------------------------------------------------------------------------
 ! R1    R(1,2)                  1.54           estimate D2E/DX2                !
 ! R2    R(1,8)                  1.47           estimate D2E/DX2                !
 ! R3    R(1,13)                 1.2584         estimate D2E/DX2                !
 ! R4    R(2,3)                  1.07           estimate D2E/DX2                !
 ! R5    R(2,4)                  1.07           estimate D2E/DX2                !
 ! R6    R(2,5)                  1.54           estimate D2E/DX2                !
 ! R7    R(5,6)                  1.07           estimate D2E/DX2                !
 ! R8    R(5,7)                  1.54           estimate D2E/DX2                !
 ! R9    R(5,11)                 1.47           estimate D2E/DX2                !
 ! R10   R(7,14)                 1.2584         estimate D2E/DX2                !
 ! R11   R(7,15)                 1.47           estimate D2E/DX2                !
 ! R12   R(8,9)                  1.0            estimate D2E/DX2                !
 ! R13   R(8,10)                 1.0            estimate D2E/DX2                !
 ! R14   R(11,12)                1.0            estimate D2E/DX2                !
 ! R15   R(11,21)                1.47           estimate D2E/DX2                !
 ! R16   R(15,16)                1.0            estimate D2E/DX2                !
 ! R17   R(15,17)                1.47           estimate D2E/DX2                !
 ! R18   R(17,18)                1.07           estimate D2E/DX2                !
 ! R19   R(17,19)                1.07           estimate D2E/DX2                !
 ! R20   R(17,20)                1.07           estimate D2E/DX2                !
 ! R21   R(21,22)                1.54           estimate D2E/DX2                !
 ! R22   R(21,26)                1.2584         estimate D2E/DX2                !
 ! R23   R(22,23)                1.07           estimate D2E/DX2                !
 ! R24   R(22,24)                1.07           estimate D2E/DX2                !
 ! R25   R(22,25)                1.07           estimate D2E/DX2                !
 ! A1    A(2,1,8)              120.0            estimate D2E/DX2                !
 ! A2    A(2,1,13)             120.0            estimate D2E/DX2                !
 ! A3    A(8,1,13)             120.0            estimate D2E/DX2                !
 ! A4    A(1,2,3)              109.4712         estimate D2E/DX2                !
 ! A5    A(1,2,4)              109.4712         estimate D2E/DX2                !
 ! A6    A(1,2,5)              109.4712         estimate D2E/DX2                !
 ! A7    A(3,2,4)              109.4712         estimate D2E/DX2                !
 ! A8    A(3,2,5)              109.4712         estimate D2E/DX2                !
 ! A9    A(4,2,5)              109.4712         estimate D2E/DX2                !
 ! A10   A(2,5,6)              109.4712         estimate D2E/DX2                !
 ! A11   A(2,5,7)              109.4712         estimate D2E/DX2                !
 ! A12   A(2,5,11)             109.4712         estimate D2E/DX2                !
 ! A13   A(6,5,7)              109.4712         estimate D2E/DX2                !
 ! A14   A(6,5,11)             109.4712         estimate D2E/DX2                !
 ! A15   A(7,5,11)             109.4712         estimate D2E/DX2                !
 ! A16   A(5,7,14)             120.0            estimate D2E/DX2                !
 ! A17   A(5,7,15)             120.0            estimate D2E/DX2                !
 ! A18   A(14,7,15)            120.0            estimate D2E/DX2                !
 ! A19   A(1,8,9)              109.4712         estimate D2E/DX2                !
 ! A20   A(1,8,10)             109.4712         estimate D2E/DX2                !
 ! A21   A(9,8,10)             109.4712         estimate D2E/DX2                !
 ! A22   A(5,11,12)            109.4712         estimate D2E/DX2                !
 ! A23   A(5,11,21)            109.4712         estimate D2E/DX2                !
 ! A24   A(12,11,21)           109.4712         estimate D2E/DX2                !
 ! A25   A(7,15,16)            109.4712         estimate D2E/DX2                !
 ! A26   A(7,15,17)            109.4712         estimate D2E/DX2                !
 ! A27   A(16,15,17)           109.4712         estimate D2E/DX2                !
 ! A28   A(15,17,18)           109.4712         estimate D2E/DX2                !
 ! A29   A(15,17,19)           109.4712         estimate D2E/DX2                !
 ! A30   A(15,17,20)           109.4712         estimate D2E/DX2                !
 ! A31   A(18,17,19)           109.4712         estimate D2E/DX2                !
 ! A32   A(18,17,20)           109.4712         estimate D2E/DX2                !
 ! A33   A(19,17,20)           109.4712         estimate D2E/DX2                !
 ! A34   A(11,21,22)           120.0            estimate D2E/DX2                !
 ! A35   A(11,21,26)           120.0            estimate D2E/DX2                !
 ! A36   A(22,21,26)           120.0            estimate D2E/DX2                !
 ! A37   A(21,22,23)           109.4712         estimate D2E/DX2                !
 ! A38   A(21,22,24)           109.4712         estimate D2E/DX2                !
 ! A39   A(21,22,25)           109.4712         estimate D2E/DX2                !
 ! A40   A(23,22,24)           109.4712         estimate D2E/DX2                !
 ! A41   A(23,22,25)           109.4712         estimate D2E/DX2                !
 ! A42   A(24,22,25)           109.4712         estimate D2E/DX2                !
 ! D1    D(8,1,2,3)            -90.0            estimate D2E/DX2                !
 ! D2    D(8,1,2,4)            150.0            estimate D2E/DX2                !
 ! D3    D(8,1,2,5)             30.0            estimate D2E/DX2                !
 ! D4    D(13,1,2,3)            90.0            estimate D2E/DX2                !
 ! D5    D(13,1,2,4)           -30.0            estimate D2E/DX2                !
 ! D6    D(13,1,2,5)          -150.0            estimate D2E/DX2                !
 ! D7    D(2,1,8,9)             90.0            estimate D2E/DX2                !
 ! D8    D(2,1,8,10)          -150.0            estimate D2E/DX2                !
 ! D9    D(13,1,8,9)           -90.0            estimate D2E/DX2                !
 ! D10   D(13,1,8,10)           30.0            estimate D2E/DX2                !
 ! D11   D(1,2,5,6)             82.68           estimate D2E/DX2                !
 ! D12   D(1,2,5,7)           -157.32           estimate D2E/DX2                !
 ! D13   D(1,2,5,11)           -37.32           estimate D2E/DX2                !
 ! D14   D(3,2,5,6)           -157.32           estimate D2E/DX2                !
 ! D15   D(3,2,5,7)            -37.32           estimate D2E/DX2                !
 ! D16   D(3,2,5,11)            82.68           estimate D2E/DX2                !
 ! D17   D(4,2,5,6)            -37.32           estimate D2E/DX2                !
 ! D18   D(4,2,5,7)             82.68           estimate D2E/DX2                !
 ! D19   D(4,2,5,11)          -157.32           estimate D2E/DX2                !
 ! D20   D(2,5,7,14)             0.0            estimate D2E/DX2                !
 ! D21   D(2,5,7,15)          -180.0            estimate D2E/DX2                !
 ! D22   D(6,5,7,14)           120.0            estimate D2E/DX2                !
 ! D23   D(6,5,7,15)           -60.0            estimate D2E/DX2                !
 ! D24   D(11,5,7,14)         -120.0            estimate D2E/DX2                !
 ! D25   D(11,5,7,15)           60.0            estimate D2E/DX2                !
 ! D26   D(2,5,11,12)          -60.0            estimate D2E/DX2                !
 ! D27   D(2,5,11,21)          180.0            estimate D2E/DX2                !
 ! D28   D(6,5,11,12)          180.0            estimate D2E/DX2                !
 ! D29   D(6,5,11,21)           60.0            estimate D2E/DX2                !
 ! D30   D(7,5,11,12)           60.0            estimate D2E/DX2                !
 ! D31   D(7,5,11,21)          -60.0            estimate D2E/DX2                !
 ! D32   D(5,7,15,16)          -90.0            estimate D2E/DX2                !
 ! D33   D(5,7,15,17)          150.0            estimate D2E/DX2                !
 ! D34   D(14,7,15,16)          90.0            estimate D2E/DX2                !
 ! D35   D(14,7,15,17)         -30.0            estimate D2E/DX2                !
 ! D36   D(5,11,21,22)         150.0            estimate D2E/DX2                !
 ! D37   D(5,11,21,26)         -30.0            estimate D2E/DX2                !
 ! D38   D(12,11,21,22)         30.0            estimate D2E/DX2                !
 ! D39   D(12,11,21,26)       -150.0            estimate D2E/DX2                !
 ! D40   D(7,15,17,18)          66.9            estimate D2E/DX2                !
 ! D41   D(7,15,17,19)        -173.1            estimate D2E/DX2                !
 ! D42   D(7,15,17,20)         -53.1            estimate D2E/DX2                !
 ! D43   D(16,15,17,18)        -53.1            estimate D2E/DX2                !
 ! D44   D(16,15,17,19)         66.9            estimate D2E/DX2                !
 ! D45   D(16,15,17,20)       -173.1            estimate D2E/DX2                !
 ! D46   D(11,21,22,23)         90.0            estimate D2E/DX2                !
 ! D47   D(11,21,22,24)       -150.0            estimate D2E/DX2                !
 ! D48   D(11,21,22,25)        -30.0            estimate D2E/DX2                !
 ! D49   D(26,21,22,23)        -90.0            estimate D2E/DX2                !
 ! D50   D(26,21,22,24)         30.0            estimate D2E/DX2                !
 ! D51   D(26,21,22,25)        150.0            estimate D2E/DX2                !
 --------------------------------------------------------------------------------
 Trust Radius=3.00D-01 FncErr=1.00D-07 GrdErr=1.00D-06
 Number of steps in this run=    128 maximum allowed number of steps=    156.
 GradGradGradGradGradGradGradGradGradGradGradGradGradGradGradGradGradGrad

 Leave Link  103 at Fri Mar 08 12:33:25 2013, MaxMem= 4294967296 cpu:       0.0
 (Enter C:\G09W\l202.exe)
                          Input orientation:                          
 ---------------------------------------------------------------------
 Center     Atomic      Atomic             Coordinates (Angstroms)
 Number     Number       Type             X           Y           Z
 ---------------------------------------------------------------------
      1          6           0       -2.351996    0.906190    1.580618
      2          6           0       -1.401051    1.882801    2.297231
      3          1           0       -1.606921    1.875233    3.347212
      4          1           0       -1.547456    2.870323    1.912176
      5          6           0        0.056908    1.449013    2.056846
      6          1           0        0.387465    1.819125    1.108875
      7          6           0        0.952846    2.020097    3.171638
      8          7           0       -1.961133   -0.499007    1.397455
      9          1           0       -2.270737   -1.036107    2.182101
     10          1           0       -2.380909   -0.855687    0.562849
     11          7           0        0.139252   -0.018652    2.065623
     12          1           0       -0.169680   -0.364551    2.951577
     13          8           0       -3.463653    1.311083    1.151841
     14          8           0        0.448728    2.721907    4.086459
     15          7           0        2.396945    1.745401    3.167108
     16          1           0        2.578384    0.906974    3.681034
     17          6           0        3.111185    2.867739    3.792504
     18          1           0        2.864138    2.912521    4.832630
     19          1           0        4.165891    2.725129    3.682243
     20          1           0        2.823415    3.782507    3.317859
     21          6           0        1.530940   -0.432723    1.836165
     22          6           0        2.053360   -1.747526    2.444416
     23          1           0        1.889517   -2.549294    1.755051
     24          1           0        3.100724   -1.656926    2.643715
     25          1           0        1.532820   -1.949890    3.357097
     26          8           0        2.295408    0.287193    1.142710
 ---------------------------------------------------------------------
                    Distance matrix (angstroms):
                    1          2          3          4          5
     1  C    0.000000
     2  C    1.540000   0.000000
     3  H    2.148263   1.070000   0.000000
     4  H    2.148263   1.070000   1.747303   0.000000
     5  C    2.514809   1.540000   2.148263   2.148263   0.000000
     6  H    2.925857   2.148263   2.998479   2.343977   1.070000
     7  C    3.833289   2.514809   2.569868   2.925857   1.540000
     8  N    1.470000   2.606971   3.092577   3.433431   2.881331
     9  H    2.034920   3.047890   3.205313   3.981983   3.407263
    10  H    2.034920   3.386373   3.976136   4.049503   3.672414
    11  N    2.701273   2.457987   2.877219   3.348836   1.470000
    12  H    2.873466   2.644813   2.690505   3.666473   2.034920
    13  O    1.258400   2.427572   2.930080   2.584792   3.637638
    14  O    4.173741   2.706865   2.342869   2.955382   2.427572
    15  N    5.076777   3.898761   4.010017   4.289359   2.606971
    16  H    5.359141   4.324702   4.308798   4.899607   3.047890
    17  C    6.211800   4.854505   4.841888   5.023801   3.788654
    18  H    6.465987   5.067584   4.824190   5.290841   4.210388
    19  H    7.085775   5.798156   5.844650   5.983022   4.599362
    20  H    6.170581   4.743066   4.823529   4.681083   3.832610
    21  C    4.115237   3.764412   4.178049   4.515795   2.400500
    22  C    5.214932   5.013372   5.228488   5.879939   3.788654
    23  H    5.473685   5.546645   5.859736   6.419480   4.408628
    24  H    6.118161   5.737220   5.927308   6.529679   4.388176
    25  H    5.138566   4.941704   4.948701   5.900030   3.927023
    26  O    4.708851   4.188400   4.754984   4.693851   2.682602
                    6          7          8          9         10
     6  H    0.000000
     7  C    2.148263   0.000000
     8  N    3.312541   4.240858   0.000000
     9  H    4.046010   4.550939   1.000000   0.000000
    10  H    3.888015   5.117600   1.000000   1.632993   0.000000
    11  N    2.086720   2.457987   2.255838   2.618554   3.051257
    12  H    2.911082   2.644813   2.375432   2.336133   3.291925
    13  O    3.884722   4.907926   2.365231   2.827328   2.492817
    14  O    3.112037   1.258400   4.838642   5.014452   5.763840
    15  N    2.877458   1.470000   5.211706   5.522162   6.031228
    16  H    3.499735   2.034920   5.272450   5.434734   6.117568
    17  C    3.964858   2.400500   6.542144   6.840942   7.379544
    18  H    4.603887   2.684838   6.835363   6.998850   7.742153
    19  H    4.660426   3.328881   7.290798   7.604439   8.087858
    20  H    3.829925   2.574199   6.701582   7.103475   7.495859
    21  C    2.628174   2.852017   3.520147   3.864775   4.135553
    22  C    4.156906   3.991862   4.332561   4.390073   4.898818
    23  H    4.664417   4.874772   4.377106   4.447451   4.746177
    24  H    4.669093   4.290988   5.340069   5.426887   5.917795
    25  H    4.535616   4.016411   4.260630   4.084441   4.931772
    26  O    2.447081   2.986968   4.336029   4.866326   4.848748
                   11         12         13         14         15
    11  N    0.000000
    12  H    1.000000   0.000000
    13  O    3.947672   4.110603   0.000000
    14  O    3.419096   3.346133   5.090101   0.000000
    15  N    3.069582   3.329552   6.212611   2.365231   0.000000
    16  H    3.068502   3.114601   6.562494   2.827328   1.000000
    17  C    4.488403   4.681766   7.254293   2.682602   1.470000
    18  H    4.865502   4.845783   7.493580   2.535214   2.086720
    19  H    5.133772   5.373748   8.161642   3.739078   2.086720
    20  H    4.818883   5.127462   7.094137   2.711965   2.086720
    21  C    1.470000   2.034920   5.334333   4.023269   2.695477
    22  C    2.606971   2.666785   6.439198   5.024638   3.583417
    23  H    3.092577   3.231884   6.627428   5.941119   4.549263
    24  H    3.433431   3.529952   7.357025   5.318719   3.513556
    25  H    2.709173   2.361410   6.360962   4.851074   3.799735
    26  O    2.365231   3.126249   5.849377   4.243079   2.496972
                   16         17         18         19         20
    16  H    0.000000
    17  C    2.034920   0.000000
    18  H    2.330246   1.070000   0.000000
    19  H    2.413683   1.070000   1.747303   0.000000
    20  H    2.908715   1.070000   1.747303   1.747303   0.000000
    21  C    2.509077   4.149395   4.684749   4.508103   4.651243
    22  C    2.975104   4.923109   5.298770   5.098984   5.651296
    23  H    4.016185   5.915060   6.344509   6.059330   6.588341
    24  H    2.814685   4.668235   5.072195   4.627691   5.488059
    25  H    3.059381   5.088258   5.252870   5.375368   5.876015
    26  O    2.628173   3.787627   4.564133   3.986410   4.150576
                   21         22         23         24         25
    21  C    0.000000
    22  C    1.540000   0.000000
    23  H    2.148263   1.070000   0.000000
    24  H    2.148263   1.070000   1.747303   0.000000
    25  H    2.148263   1.070000   1.747303   1.747303   0.000000
    26  O    1.258400   2.427572   2.930080   2.584792   3.238764
                   26
    26  O    0.000000
 Stoichiometry    C7H13N3O3
 Framework group  C1[X(C7H13N3O3)]
 Deg. of freedom    72
 Full point group                 C1      NOp   1
 Largest Abelian subgroup         C1      NOp   1
 Largest concise Abelian subgroup C1      NOp   1
                         Standard orientation:                         
 ---------------------------------------------------------------------
 Center     Atomic      Atomic             Coordinates (Angstroms)
 Number     Number       Type             X           Y           Z
 ---------------------------------------------------------------------
      1          6           0       -2.768217   -0.390710    0.047922
      2          6           0       -1.509951   -1.278247    0.022532
      3          1           0       -1.375221   -1.677974   -0.960812
      4          1           0       -1.625280   -2.080597    0.720982
      5          6           0       -0.279607   -0.435689    0.407176
      6          1           0       -0.212936   -0.367679    1.472929
      7          6           0        0.993193   -1.103876   -0.145187
      8          7           0       -2.661896    1.043990   -0.254124
      9          1           0       -2.784224    1.187849   -1.236132
     10          1           0       -3.368992    1.543332    0.246549
     11          7           0       -0.411729    0.912950   -0.162574
     12          1           0       -0.474039    0.849389   -1.158605
     13          8           0       -3.887417   -0.893647    0.327238
     14          8           0        0.908187   -2.176476   -0.797778
     15          7           0        2.307440   -0.488734    0.089881
     16          1           0        2.517588    0.143742   -0.655646
     17          6           0        3.336024   -1.537352    0.147464
     18          1           0        3.436586   -1.991615   -0.816088
     19          1           0        4.270760   -1.104563    0.437052
     20          1           0        3.049422   -2.279158    0.863343
     21          6           0        0.762690    1.717210    0.204585
     22          6           0        1.253568    2.835860   -0.733103
     23          1           0        0.767858    3.754339   -0.477405
     24          1           0        2.312136    2.950779   -0.627615
     25          1           0        1.021775    2.579706   -1.745801
     26          8           0        1.366939    1.491602    1.285120
 ---------------------------------------------------------------------
 Rotational constants (GHZ):      1.0839072      0.5675012      0.4093217
 Leave Link  202 at Fri Mar 08 12:33:25 2013, MaxMem= 4294967296 cpu:       0.0
 (Enter C:\G09W\l301.exe)
 Standard basis: CC-pVTZ (5D, 7F)
 Ernie: Thresh=  0.10000D-02 Tol=  0.10000D-05 Strict=F.
 Ernie:  39 primitive shells out of 442 were deleted.
 There are   572 symmetry adapted basis functions of A   symmetry.
 Integral buffers will be    131072 words long.
 Raffenetti 2 integral format.
 Two-electron integral symmetry is turned on.
   572 basis functions,   897 primitive gaussians,   650 cartesian basis functions
    50 alpha electrons       50 beta electrons
       nuclear repulsion energy       849.8383181942 Hartrees.
 IExCor= 4235 DFT=T Ex+Corr=M06 ExCW=0 ScaHFX=  0.270000
 ScaDFX=  1.000000  1.000000  1.000000  1.000000 ScalE2=  1.000000  1.000000
 IRadAn=      5 IRanWt=     -1 IRanGd=            0 ICorTp=0
 NAtoms=   26 NActive=   26 NUniq=   26 SFac= 1.00D+00 NAtFMM=   60 NAOKFM=F Big=F
 Leave Link  301 at Fri Mar 08 12:33:25 2013, MaxMem= 4294967296 cpu:       0.0
 (Enter C:\G09W\l302.exe)
 NPDir=0 NMtPBC=     1 NCelOv=     1 NCel=       1 NClECP=     1 NCelD=      1
         NCelK=      1 NCelE2=     1 NClLst=     1 CellRange=     0.0.
 One-electron integrals computed using PRISM.
 NBasis=   572 RedAO= T  NBF=   572
 NBsUse=   572 1.00D-06 NBFU=   572
 Precomputing XC quadrature grid using
 IXCGrd= 2 IRadAn=           5 IRanWt=          -1 IRanGd=           0 AccXCQ= 0.00D+00.
 NRdTot=    2181 NPtTot=      586212 NUsed=      601830 NTot=      601862
 NSgBfM=   649   650   650   650   650 NAtAll=    26    26.
 Leave Link  302 at Fri Mar 08 12:33:30 2013, MaxMem= 4294967296 cpu:       5.0
 (Enter C:\G09W\l303.exe)
 DipDrv:  MaxL=1.
 Leave Link  303 at Fri Mar 08 12:33:30 2013, MaxMem= 4294967296 cpu:       0.0
 (Enter C:\G09W\l401.exe)
 Harris functional with IExCor= 1009 diagonalized for initial guess.
 ExpMin= 1.03D-01 ExpMax= 1.53D+04 ExpMxC= 5.22D+02 IAcc=3 IRadAn=         5 AccDes= 0.00D+00
 HarFok:  IExCor= 1009 AccDes= 0.00D+00 IRadAn=         5 IDoV= 1
 ScaDFX=  1.000000  1.000000  1.000000  1.000000
 FoFCou: FMM=F IPFlag=           0 FMFlag=      100000 FMFlg1=           0
         NFxFlg=           0 DoJE=T BraDBF=F KetDBF=T FulRan=T
         Omega=  0.000000  0.000000  1.000000  0.000000  0.000000 ICntrl=     500 IOpCl=  0
         NMat0=    1 NMatS0=    1 NMatT0=    0 NMatD0=    1 NMtDS0=    0 NMtDT0=    0
         I1Cent=           4 NGrid=           0.
 Petite list used in FoFCou.
 Harris En= -664.095896019457    
 Initial guess orbital symmetries:
       Occupied  (A) (A) (A) (A) (A) (A) (A) (A) (A) (A) (A) (A)
                 (A) (A) (A) (A) (A) (A) (A) (A) (A) (A) (A) (A)
                 (A) (A) (A) (A) (A) (A) (A) (A) (A) (A) (A) (A)
                 (A) (A) (A) (A) (A) (A) (A) (A) (A) (A) (A) (A)
                 (A) (A)
       Virtual   (A) (A) (A) (A) (A) (A) (A) (A) (A) (A) (A) (A)
                 (A) (A) (A) (A) (A) (A) (A) (A) (A) (A) (A) (A)
                 (A) (A) (A) (A) (A) (A) (A) (A) (A) (A) (A) (A)
                 (A) (A) (A) (A) (A) (A) (A) (A) (A) (A) (A) (A)
                 (A) (A) (A) (A) (A) (A) (A) (A) (A) (A) (A) (A)
                 (A) (A) (A) (A) (A) (A) (A) (A) (A) (A) (A) (A)
                 (A) (A) (A) (A) (A) (A) (A) (A) (A) (A) (A) (A)
                 (A) (A) (A) (A) (A) (A) (A) (A) (A) (A) (A) (A)
                 (A) (A) (A) (A) (A) (A) (A) (A) (A) (A) (A) (A)
                 (A) (A) (A) (A) (A) (A) (A) (A) (A) (A) (A) (A)
                 (A) (A) (A) (A) (A) (A) (A) (A) (A) (A) (A) (A)
                 (A) (A) (A) (A) (A) (A) (A) (A) (A) (A) (A) (A)
                 (A) (A) (A) (A) (A) (A) (A) (A) (A) (A) (A) (A)
                 (A) (A) (A) (A) (A) (A) (A) (A) (A) (A) (A) (A)
                 (A) (A) (A) (A) (A) (A) (A) (A) (A) (A) (A) (A)
                 (A) (A) (A) (A) (A) (A) (A) (A) (A) (A) (A) (A)
                 (A) (A) (A) (A) (A) (A) (A) (A) (A) (A) (A) (A)
                 (A) (A) (A) (A) (A) (A) (A) (A) (A) (A) (A) (A)
                 (A) (A) (A) (A) (A) (A) (A) (A) (A) (A) (A) (A)
                 (A) (A) (A) (A) (A) (A) (A) (A) (A) (A) (A) (A)
                 (A) (A) (A) (A) (A) (A) (A) (A) (A) (A) (A) (A)
                 (A) (A) (A) (A) (A) (A) (A) (A) (A) (A) (A) (A)
                 (A) (A) (A) (A) (A) (A) (A) (A) (A) (A) (A) (A)
                 (A) (A) (A) (A) (A) (A) (A) (A) (A) (A) (A) (A)
                 (A) (A) (A) (A) (A) (A) (A) (A) (A) (A) (A) (A)
                 (A) (A) (A) (A) (A) (A) (A) (A) (A) (A) (A) (A)
                 (A) (A) (A) (A) (A) (A) (A) (A) (A) (A) (A) (A)
                 (A) (A) (A) (A) (A) (A) (A) (A) (A) (A) (A) (A)
                 (A) (A) (A) (A) (A) (A) (A) (A) (A) (A) (A) (A)
                 (A) (A) (A) (A) (A) (A) (A) (A) (A) (A) (A) (A)
                 (A) (A) (A) (A) (A) (A) (A) (A) (A) (A) (A) (A)
                 (A) (A) (A) (A) (A) (A) (A) (A) (A) (A) (A) (A)
                 (A) (A) (A) (A) (A) (A) (A) (A) (A) (A) (A) (A)
                 (A) (A) (A) (A) (A) (A) (A) (A) (A) (A) (A) (A)
                 (A) (A) (A) (A) (A) (A) (A) (A) (A) (A) (A) (A)
                 (A) (A) (A) (A) (A) (A) (A) (A) (A) (A) (A) (A)
                 (A) (A) (A) (A) (A) (A) (A) (A) (A) (A) (A) (A)
                 (A) (A) (A) (A) (A) (A) (A) (A) (A) (A) (A) (A)
                 (A) (A) (A) (A) (A) (A) (A) (A) (A) (A) (A) (A)
                 (A) (A) (A) (A) (A) (A) (A) (A) (A) (A) (A) (A)
                 (A) (A) (A) (A) (A) (A) (A) (A) (A) (A) (A) (A)
                 (A) (A) (A) (A) (A) (A) (A) (A) (A) (A) (A) (A)
                 (A) (A) (A) (A) (A) (A) (A) (A) (A) (A) (A) (A)
                 (A) (A) (A) (A) (A) (A)
 The electronic state of the initial guess is 1-A.
 Leave Link  401 at Fri Mar 08 12:33:51 2013, MaxMem= 4294967296 cpu:      21.0
 (Enter C:\G09W\l502.exe)
 Closed shell SCF:
 Requested convergence on RMS density matrix=1.00D-08 within 128 cycles.
 Requested convergence on MAX density matrix=1.00D-06.
 Requested convergence on             energy=1.00D-06.
 No special actions if energy rises.
 Using DIIS extrapolation, IDIIS=  1040.
 Integral symmetry usage will be decided dynamically.
       601583 words used for storage of precomputed grid.
 IEnd=     1899761 IEndB=     1899761 NGot=  4294967296 MDV=  4293507326
 LenX=  4293507326 LenY=  4293084176
 Fock matrices will be formed incrementally for  20 cycles.
 Integral accuracy reduced to 1.0D-05 until final iterations.

 Cycle   1  Pass 0  IDiag  1:
 FoFCou: FMM=F IPFlag=           0 FMFlag=      100000 FMFlg1=           0
         NFxFlg=           0 DoJE=F BraDBF=F KetDBF=F FulRan=T
         Omega=  0.000000  0.000000  1.000000  0.000000  0.000000 ICntrl=       0 IOpCl=  0
         NMat0=    1 NMatS0=    1 NMatT0=    0 NMatD0=    1 NMtDS0=    0 NMtDT0=    0
         I1Cent=           0 NGrid=           0.
 Symmetry not used in FoFCou.
 E= -663.871647596724    
 DIIS: error= 1.74D-02 at cycle   1 NSaved=   1.
 NSaved= 1 IEnMin= 1 EnMin= -663.871647596724     IErMin= 1 ErrMin= 1.74D-02
 ErrMax= 1.74D-02 EMaxC= 1.00D-01 BMatC= 4.50D-01 BMatP= 4.50D-01
 IDIUse=3 WtCom= 8.26D-01 WtEn= 1.74D-01
 Coeff-Com:  0.100D+01
 Coeff-En:   0.100D+01
 Coeff:      0.100D+01
 Gap=     0.141 Goal=   None    Shift=    0.000
 GapD=    0.141 DampG=1.000 DampE=0.500 DampFc=0.5000 IDamp=-1.
 Damping current iteration by 5.00D-01
 RMSDP=2.85D-03 MaxDP=3.23D-01              OVMax= 2.56D-01

 Cycle   2  Pass 0  IDiag  1:
 RMSU=  1.01D-03    CP:  1.00D+00
 E= -663.950563870933     Delta-E=       -0.078916274208 Rises=F Damp=T
 DIIS: error= 7.34D-03 at cycle   2 NSaved=   2.
 NSaved= 2 IEnMin= 2 EnMin= -663.950563870933     IErMin= 2 ErrMin= 7.34D-03
 ErrMax= 7.34D-03 EMaxC= 1.00D-01 BMatC= 8.42D-02 BMatP= 4.50D-01
 IDIUse=3 WtCom= 9.27D-01 WtEn= 7.34D-02
 Coeff-Com:  0.252D+00 0.748D+00
 Coeff-En:   0.386D+00 0.614D+00
 Coeff:      0.261D+00 0.739D+00
 Gap=     0.239 Goal=   None    Shift=    0.000
 RMSDP=7.36D-04 MaxDP=4.22D-02 DE=-7.89D-02 OVMax= 1.61D-01

 Cycle   3  Pass 0  IDiag  1:
 RMSU=  4.58D-04    CP:  1.00D+00  7.53D-01
 E= -664.172663071528     Delta-E=       -0.222099200595 Rises=F Damp=F
 DIIS: error= 6.95D-03 at cycle   3 NSaved=   3.
 NSaved= 3 IEnMin= 3 EnMin= -664.172663071528     IErMin= 3 ErrMin= 6.95D-03
 ErrMax= 6.95D-03 EMaxC= 1.00D-01 BMatC= 7.12D-02 BMatP= 8.42D-02
 IDIUse=3 WtCom= 9.30D-01 WtEn= 6.95D-02
 Coeff-Com:  0.952D-01 0.475D+00 0.430D+00
 Coeff-En:   0.000D+00 0.000D+00 0.100D+01
 Coeff:      0.885D-01 0.442D+00 0.470D+00
 Gap=     0.203 Goal=   None    Shift=    0.000
 RMSDP=4.28D-04 MaxDP=1.57D-02 DE=-2.22D-01 OVMax= 7.73D-02

 Cycle   4  Pass 0  IDiag  1:
 RMSU=  2.47D-04    CP:  1.01D+00  8.00D-01  6.33D-01
 E= -664.224945930153     Delta-E=       -0.052282858625 Rises=F Damp=F
 DIIS: error= 2.05D-03 at cycle   4 NSaved=   4.
 NSaved= 4 IEnMin= 4 EnMin= -664.224945930153     IErMin= 4 ErrMin= 2.05D-03
 ErrMax= 2.05D-03 EMaxC= 1.00D-01 BMatC= 7.90D-03 BMatP= 7.12D-02
 IDIUse=3 WtCom= 9.80D-01 WtEn= 2.05D-02
 Coeff-Com:  0.184D-01 0.120D+00 0.271D+00 0.590D+00
 Coeff-En:   0.000D+00 0.000D+00 0.969D-01 0.903D+00
 Coeff:      0.180D-01 0.118D+00 0.267D+00 0.597D+00
 Gap=     0.190 Goal=   None    Shift=    0.000
 RMSDP=1.42D-04 MaxDP=7.04D-03 DE=-5.23D-02 OVMax= 3.04D-02

 Cycle   5  Pass 0  IDiag  1:
 RMSU=  6.15D-05    CP:  1.01D+00  7.84D-01  7.51D-01  7.77D-01
 E= -664.230413604056     Delta-E=       -0.005467673903 Rises=F Damp=F
 DIIS: error= 7.78D-04 at cycle   5 NSaved=   5.
 NSaved= 5 IEnMin= 5 EnMin= -664.230413604056     IErMin= 5 ErrMin= 7.78D-04
 ErrMax= 7.78D-04 EMaxC= 1.00D-01 BMatC= 8.40D-04 BMatP= 7.90D-03
 IDIUse=3 WtCom= 9.92D-01 WtEn= 7.78D-03
 Coeff-Com:  0.125D-02 0.152D-01 0.105D+00 0.347D+00 0.531D+00
 Coeff-En:   0.000D+00 0.000D+00 0.000D+00 0.542D-01 0.946D+00
 Coeff:      0.124D-02 0.151D-01 0.104D+00 0.345D+00 0.535D+00
 Gap=     0.191 Goal=   None    Shift=    0.000
 RMSDP=4.64D-05 MaxDP=2.56D-03 DE=-5.47D-03 OVMax= 9.96D-03

 Cycle   6  Pass 0  IDiag  1:
 RMSU=  1.64D-05    CP:  1.01D+00  7.92D-01  7.37D-01  8.13D-01  5.96D-01
 E= -664.231080010800     Delta-E=       -0.000666406744 Rises=F Damp=F
 DIIS: error= 2.88D-04 at cycle   6 NSaved=   6.
 NSaved= 6 IEnMin= 6 EnMin= -664.231080010800     IErMin= 6 ErrMin= 2.88D-04
 ErrMax= 2.88D-04 EMaxC= 1.00D-01 BMatC= 8.30D-05 BMatP= 8.40D-04
 IDIUse=3 WtCom= 9.97D-01 WtEn= 2.88D-03
 Coeff-Com: -0.522D-03-0.133D-02 0.345D-01 0.131D+00 0.301D+00 0.536D+00
 Coeff-En:   0.000D+00 0.000D+00 0.000D+00 0.000D+00 0.110D-01 0.989D+00
 Coeff:     -0.520D-03-0.133D-02 0.344D-01 0.130D+00 0.300D+00 0.537D+00
 Gap=     0.192 Goal=   None    Shift=    0.000
 RMSDP=1.39D-05 MaxDP=1.16D-03 DE=-6.66D-04 OVMax= 1.95D-03

 Cycle   7  Pass 0  IDiag  1:
 RMSU=  7.45D-06    CP:  1.01D+00  7.93D-01  7.42D-01  8.15D-01  6.50D-01
                    CP:  7.10D-01
 E= -664.231130846525     Delta-E=       -0.000050835725 Rises=F Damp=F
 DIIS: error= 1.36D-04 at cycle   7 NSaved=   7.
 NSaved= 7 IEnMin= 7 EnMin= -664.231130846525     IErMin= 7 ErrMin= 1.36D-04
 ErrMax= 1.36D-04 EMaxC= 1.00D-01 BMatC= 1.83D-05 BMatP= 8.30D-05
 IDIUse=3 WtCom= 9.99D-01 WtEn= 1.36D-03
 Coeff-Com: -0.482D-03-0.377D-02 0.562D-02 0.280D-01 0.118D+00 0.359D+00
 Coeff-Com:  0.494D+00
 Coeff-En:   0.000D+00 0.000D+00 0.000D+00 0.000D+00 0.000D+00 0.158D+00
 Coeff-En:   0.842D+00
 Coeff:     -0.482D-03-0.376D-02 0.561D-02 0.280D-01 0.118D+00 0.358D+00
 Coeff:      0.494D+00
 Gap=     0.191 Goal=   None    Shift=    0.000
 RMSDP=5.50D-06 MaxDP=3.14D-04 DE=-5.08D-05 OVMax= 7.59D-04

 Initial convergence to 1.0D-05 achieved.  Increase integral accuracy.
 Cycle   8  Pass 1  IDiag  1:
 E= -664.231182111516     Delta-E=       -0.000051264991 Rises=F Damp=F
 DIIS: error= 5.20D-05 at cycle   1 NSaved=   1.
 NSaved= 1 IEnMin= 1 EnMin= -664.231182111516     IErMin= 1 ErrMin= 5.20D-05
 ErrMax= 5.20D-05 EMaxC= 1.00D-01 BMatC= 4.97D-06 BMatP= 4.97D-06
 IDIUse=1 WtCom= 1.00D+00 WtEn= 0.00D+00
 Coeff-Com:  0.100D+01
 Coeff:      0.100D+01
 Gap=     0.191 Goal=   None    Shift=    0.000
 RMSDP=5.50D-06 MaxDP=3.14D-04 DE=-5.13D-05 OVMax= 4.72D-04

 Cycle   9  Pass 1  IDiag  1:
 RMSU=  1.53D-05    CP:  1.00D+00
 E= -664.231182939975     Delta-E=       -0.000000828459 Rises=F Damp=F
 DIIS: error= 5.70D-05 at cycle   2 NSaved=   2.
 NSaved= 2 IEnMin= 2 EnMin= -664.231182939975     IErMin= 1 ErrMin= 5.20D-05
 ErrMax= 5.70D-05 EMaxC= 1.00D-01 BMatC= 3.25D-06 BMatP= 4.97D-06
 IDIUse=1 WtCom= 1.00D+00 WtEn= 0.00D+00
 Coeff-Com:  0.425D+00 0.575D+00
 Coeff:      0.425D+00 0.575D+00
 Gap=     0.191 Goal=   None    Shift=    0.000
 RMSDP=3.55D-06 MaxDP=1.71D-04 DE=-8.28D-07 OVMax= 5.03D-04

 Cycle  10  Pass 1  IDiag  1:
 RMSU=  2.50D-06    CP:  1.00D+00  9.88D-01
 E= -664.231183878625     Delta-E=       -0.000000938650 Rises=F Damp=F
 DIIS: error= 4.78D-05 at cycle   3 NSaved=   3.
 NSaved= 3 IEnMin= 3 EnMin= -664.231183878625     IErMin= 3 ErrMin= 4.78D-05
 ErrMax= 4.78D-05 EMaxC= 1.00D-01 BMatC= 1.99D-06 BMatP= 3.25D-06
 IDIUse=1 WtCom= 1.00D+00 WtEn= 0.00D+00
 Coeff-Com:  0.276D-01 0.433D+00 0.540D+00
 Coeff:      0.276D-01 0.433D+00 0.540D+00
 Gap=     0.191 Goal=   None    Shift=    0.000
 RMSDP=1.73D-06 MaxDP=9.50D-05 DE=-9.39D-07 OVMax= 2.63D-04

 Cycle  11  Pass 1  IDiag  1:
 RMSU=  5.86D-07    CP:  1.00D+00  1.01D+00  5.90D-01
 E= -664.231185230854     Delta-E=       -0.000001352229 Rises=F Damp=F
 DIIS: error= 6.19D-06 at cycle   4 NSaved=   4.
 NSaved= 4 IEnMin= 4 EnMin= -664.231185230854     IErMin= 4 ErrMin= 6.19D-06
 ErrMax= 6.19D-06 EMaxC= 1.00D-01 BMatC= 1.05D-07 BMatP= 1.99D-06
 IDIUse=1 WtCom= 1.00D+00 WtEn= 0.00D+00
 Coeff-Com: -0.198D-02 0.237D+00 0.331D+00 0.434D+00
 Coeff:     -0.198D-02 0.237D+00 0.331D+00 0.434D+00
 Gap=     0.191 Goal=   None    Shift=    0.000
 RMSDP=4.37D-07 MaxDP=2.91D-05 DE=-1.35D-06 OVMax= 9.14D-05

 Cycle  12  Pass 1  IDiag  1:
 RMSU=  1.99D-07    CP:  1.00D+00  1.01D+00  6.03D-01  6.02D-01
 E= -664.231185312245     Delta-E=       -0.000000081390 Rises=F Damp=F
 DIIS: error= 1.69D-06 at cycle   5 NSaved=   5.
 NSaved= 5 IEnMin= 5 EnMin= -664.231185312245     IErMin= 5 ErrMin= 1.69D-06
 ErrMax= 1.69D-06 EMaxC= 1.00D-01 BMatC= 3.56D-09 BMatP= 1.05D-07
 IDIUse=1 WtCom= 1.00D+00 WtEn= 0.00D+00
 Coeff-Com: -0.304D-02 0.833D-01 0.122D+00 0.215D+00 0.583D+00
 Coeff:     -0.304D-02 0.833D-01 0.122D+00 0.215D+00 0.583D+00
 Gap=     0.191 Goal=   None    Shift=    0.000
 RMSDP=1.11D-07 MaxDP=7.07D-06 DE=-8.14D-08 OVMax= 2.25D-05

 Cycle  13  Pass 1  IDiag  1:
 RMSU=  6.74D-08    CP:  1.00D+00  1.01D+00  5.99D-01  6.42D-01  8.46D-01
 E= -664.231185314509     Delta-E=       -0.000000002265 Rises=F Damp=F
 DIIS: error= 6.09D-07 at cycle   6 NSaved=   6.
 NSaved= 6 IEnMin= 6 EnMin= -664.231185314509     IErMin= 6 ErrMin= 6.09D-07
 ErrMax= 6.09D-07 EMaxC= 1.00D-01 BMatC= 7.88D-10 BMatP= 3.56D-09
 IDIUse=1 WtCom= 1.00D+00 WtEn= 0.00D+00
 Coeff-Com: -0.142D-02 0.910D-02 0.168D-01 0.561D-01 0.348D+00 0.572D+00
 Coeff:     -0.142D-02 0.910D-02 0.168D-01 0.561D-01 0.348D+00 0.572D+00
 Gap=     0.191 Goal=   None    Shift=    0.000
 RMSDP=5.47D-08 MaxDP=3.00D-06 DE=-2.26D-09 OVMax= 1.05D-05

 Cycle  14  Pass 1  IDiag  1:
 RMSU=  2.62D-08    CP:  1.00D+00  1.01D+00  6.03D-01  6.51D-01  9.41D-01
                    CP:  7.33D-01
 E= -664.231185315006     Delta-E=       -0.000000000497 Rises=F Damp=F
 DIIS: error= 4.37D-07 at cycle   7 NSaved=   7.
 NSaved= 7 IEnMin= 7 EnMin= -664.231185315006     IErMin= 7 ErrMin= 4.37D-07
 ErrMax= 4.37D-07 EMaxC= 1.00D-01 BMatC= 1.55D-10 BMatP= 7.88D-10
 IDIUse=1 WtCom= 1.00D+00 WtEn= 0.00D+00
 Coeff-Com: -0.539D-03-0.274D-02-0.185D-02 0.130D-01 0.154D+00 0.373D+00
 Coeff-Com:  0.466D+00
 Coeff:     -0.539D-03-0.274D-02-0.185D-02 0.130D-01 0.154D+00 0.373D+00
 Coeff:      0.466D+00
 Gap=     0.191 Goal=   None    Shift=    0.000
 RMSDP=1.70D-08 MaxDP=9.24D-07 DE=-4.97D-10 OVMax= 2.27D-06

 Cycle  15  Pass 1  IDiag  1:
 RMSU=  9.20D-09    CP:  1.00D+00  1.01D+00  6.03D-01  6.54D-01  9.49D-01
                    CP:  8.04D-01  7.93D-01
 E= -664.231185315171     Delta-E=       -0.000000000165 Rises=F Damp=F
 DIIS: error= 1.07D-07 at cycle   8 NSaved=   8.
 NSaved= 8 IEnMin= 8 EnMin= -664.231185315171     IErMin= 8 ErrMin= 1.07D-07
 ErrMax= 1.07D-07 EMaxC= 1.00D-01 BMatC= 1.39D-11 BMatP= 1.55D-10
 IDIUse=1 WtCom= 1.00D+00 WtEn= 0.00D+00
 Coeff-Com: -0.428D-04-0.350D-02-0.448D-02-0.326D-02 0.185D-01 0.110D+00
 Coeff-Com:  0.267D+00 0.615D+00
 Coeff:     -0.428D-04-0.350D-02-0.448D-02-0.326D-02 0.185D-01 0.110D+00
 Coeff:      0.267D+00 0.615D+00
 Gap=     0.191 Goal=   None    Shift=    0.000
 RMSDP=6.08D-09 MaxDP=5.12D-07 DE=-1.65D-10 OVMax= 5.83D-07

 SCF Done:  E(RM06) =  -664.231185315     A.U. after   15 cycles
             Convg  =    0.6079D-08             -V/T =  2.0076
 KE= 6.592021555462D+02 PE=-3.252108349269D+03 EE= 1.078836690213D+03
 Leave Link  502 at Fri Mar 08 12:48:39 2013, MaxMem= 4294967296 cpu:     888.0
 (Enter C:\G09W\l601.exe)
 Copying SCF densities to generalized density rwf, IOpCl= 0 IROHF=0.

 **********************************************************************

            Population analysis using the SCF density.

 **********************************************************************

 Orbital symmetries:
       Occupied  (A) (A) (A) (A) (A) (A) (A) (A) (A) (A) (A) (A)
                 (A) (A) (A) (A) (A) (A) (A) (A) (A) (A) (A) (A)
                 (A) (A) (A) (A) (A) (A) (A) (A) (A) (A) (A) (A)
                 (A) (A) (A) (A) (A) (A) (A) (A) (A) (A) (A) (A)
                 (A) (A)
       Virtual   (A) (A) (A) (A) (A) (A) (A) (A) (A) (A) (A) (A)
                 (A) (A) (A) (A) (A) (A) (A) (A) (A) (A) (A) (A)
                 (A) (A) (A) (A) (A) (A) (A) (A) (A) (A) (A) (A)
                 (A) (A) (A) (A) (A) (A) (A) (A) (A) (A) (A) (A)
                 (A) (A) (A) (A) (A) (A) (A) (A) (A) (A) (A) (A)
                 (A) (A) (A) (A) (A) (A) (A) (A) (A) (A) (A) (A)
                 (A) (A) (A) (A) (A) (A) (A) (A) (A) (A) (A) (A)
                 (A) (A) (A) (A) (A) (A) (A) (A) (A) (A) (A) (A)
                 (A) (A) (A) (A) (A) (A) (A) (A) (A) (A) (A) (A)
                 (A) (A) (A) (A) (A) (A) (A) (A) (A) (A) (A) (A)
                 (A) (A) (A) (A) (A) (A) (A) (A) (A) (A) (A) (A)
                 (A) (A) (A) (A) (A) (A) (A) (A) (A) (A) (A) (A)
                 (A) (A) (A) (A) (A) (A) (A) (A) (A) (A) (A) (A)
                 (A) (A) (A) (A) (A) (A) (A) (A) (A) (A) (A) (A)
                 (A) (A) (A) (A) (A) (A) (A) (A) (A) (A) (A) (A)
                 (A) (A) (A) (A) (A) (A) (A) (A) (A) (A) (A) (A)
                 (A) (A) (A) (A) (A) (A) (A) (A) (A) (A) (A) (A)
                 (A) (A) (A) (A) (A) (A) (A) (A) (A) (A) (A) (A)
                 (A) (A) (A) (A) (A) (A) (A) (A) (A) (A) (A) (A)
                 (A) (A) (A) (A) (A) (A) (A) (A) (A) (A) (A) (A)
                 (A) (A) (A) (A) (A) (A) (A) (A) (A) (A) (A) (A)
                 (A) (A) (A) (A) (A) (A) (A) (A) (A) (A) (A) (A)
                 (A) (A) (A) (A) (A) (A) (A) (A) (A) (A) (A) (A)
                 (A) (A) (A) (A) (A) (A) (A) (A) (A) (A) (A) (A)
                 (A) (A) (A) (A) (A) (A) (A) (A) (A) (A) (A) (A)
                 (A) (A) (A) (A) (A) (A) (A) (A) (A) (A) (A) (A)
                 (A) (A) (A) (A) (A) (A) (A) (A) (A) (A) (A) (A)
                 (A) (A) (A) (A) (A) (A) (A) (A) (A) (A) (A) (A)
                 (A) (A) (A) (A) (A) (A) (A) (A) (A) (A) (A) (A)
                 (A) (A) (A) (A) (A) (A) (A) (A) (A) (A) (A) (A)
                 (A) (A) (A) (A) (A) (A) (A) (A) (A) (A) (A) (A)
                 (A) (A) (A) (A) (A) (A) (A) (A) (A) (A) (A) (A)
                 (A) (A) (A) (A) (A) (A) (A) (A) (A) (A) (A) (A)
                 (A) (A) (A) (A) (A) (A) (A) (A) (A) (A) (A) (A)
                 (A) (A) (A) (A) (A) (A) (A) (A) (A) (A) (A) (A)
                 (A) (A) (A) (A) (A) (A) (A) (A) (A) (A) (A) (A)
                 (A) (A) (A) (A) (A) (A) (A) (A) (A) (A) (A) (A)
                 (A) (A) (A) (A) (A) (A) (A) (A) (A) (A) (A) (A)
                 (A) (A) (A) (A) (A) (A) (A) (A) (A) (A) (A) (A)
                 (A) (A) (A) (A) (A) (A) (A) (A) (A) (A) (A) (A)
                 (A) (A) (A) (A) (A) (A) (A) (A) (A) (A) (A) (A)
                 (A) (A) (A) (A) (A) (A) (A) (A) (A) (A) (A) (A)
                 (A) (A) (A) (A) (A) (A) (A) (A) (A) (A) (A) (A)
                 (A) (A) (A) (A) (A) (A)
 The electronic state is 1-A.
 Alpha  occ. eigenvalues --  -19.22198 -19.21003 -19.19201 -14.42875 -14.40137
 Alpha  occ. eigenvalues --  -14.39594 -10.37318 -10.37315 -10.36115 -10.30726
 Alpha  occ. eigenvalues --  -10.26556 -10.25822 -10.25408  -1.06776  -1.05312
 Alpha  occ. eigenvalues --   -1.04522  -0.95333  -0.92127  -0.90546  -0.80786
 Alpha  occ. eigenvalues --   -0.76408  -0.71771  -0.67854  -0.59906  -0.59143
 Alpha  occ. eigenvalues --   -0.58537  -0.54436  -0.52972  -0.51130  -0.50008
 Alpha  occ. eigenvalues --   -0.48724  -0.48046  -0.46912  -0.46092  -0.45118
 Alpha  occ. eigenvalues --   -0.44689  -0.42629  -0.42150  -0.41068  -0.40650
 Alpha  occ. eigenvalues --   -0.39779  -0.39056  -0.38392  -0.36850  -0.34364
 Alpha  occ. eigenvalues --   -0.30436  -0.28455  -0.27852  -0.26020  -0.23237
 Alpha virt. eigenvalues --   -0.04107  -0.02872  -0.00559   0.00100   0.02938
 Alpha virt. eigenvalues --    0.04426   0.05649   0.06610   0.08083   0.08160
 Alpha virt. eigenvalues --    0.09438   0.10155   0.10522   0.10930   0.11789
 Alpha virt. eigenvalues --    0.12517   0.14487   0.15413   0.16592   0.18020
 Alpha virt. eigenvalues --    0.19238   0.20655   0.21818   0.22159   0.24164
 Alpha virt. eigenvalues --    0.25233   0.26211   0.26531   0.27011   0.27684
 Alpha virt. eigenvalues --    0.28890   0.29763   0.30687   0.31540   0.31877
 Alpha virt. eigenvalues --    0.33471   0.34633   0.35568   0.36145   0.37162
 Alpha virt. eigenvalues --    0.37377   0.38187   0.39302   0.39442   0.40128
 Alpha virt. eigenvalues --    0.40733   0.41336   0.41587   0.41748   0.42097
 Alpha virt. eigenvalues --    0.42736   0.43066   0.43171   0.43785   0.45002
 Alpha virt. eigenvalues --    0.46015   0.46314   0.47043   0.48038   0.48551
 Alpha virt. eigenvalues --    0.49075   0.50000   0.50823   0.51882   0.52804
 Alpha virt. eigenvalues --    0.53037   0.53865   0.55037   0.55824   0.55860
 Alpha virt. eigenvalues --    0.58615   0.59440   0.60028   0.62284   0.63514
 Alpha virt. eigenvalues --    0.64171   0.65248   0.66146   0.67671   0.67996
 Alpha virt. eigenvalues --    0.69469   0.71160   0.72726   0.72781   0.75029
 Alpha virt. eigenvalues --    0.77246   0.77646   0.78875   0.80760   0.82087
 Alpha virt. eigenvalues --    0.82470   0.83620   0.85066   0.85257   0.85868
 Alpha virt. eigenvalues --    0.87576   0.87911   0.88918   0.89808   0.90563
 Alpha virt. eigenvalues --    0.93137   0.94360   0.94760   0.95672   0.95971
 Alpha virt. eigenvalues --    0.97418   0.98655   0.99265   0.99514   1.00946
 Alpha virt. eigenvalues --    1.01060   1.01514   1.02594   1.03008   1.05026
 Alpha virt. eigenvalues --    1.05947   1.06719   1.08620   1.08692   1.09803
 Alpha virt. eigenvalues --    1.10522   1.12538   1.15277   1.15898   1.16206
 Alpha virt. eigenvalues --    1.16928   1.17475   1.18994   1.19290   1.20151
 Alpha virt. eigenvalues --    1.21769   1.22281   1.23339   1.23453   1.25040
 Alpha virt. eigenvalues --    1.25872   1.26100   1.26859   1.27813   1.28071
 Alpha virt. eigenvalues --    1.28840   1.30186   1.30699   1.32552   1.33565
 Alpha virt. eigenvalues --    1.34891   1.35626   1.38137   1.38465   1.39821
 Alpha virt. eigenvalues --    1.40515   1.40943   1.41855   1.44129   1.44534
 Alpha virt. eigenvalues --    1.45304   1.46706   1.48309   1.49732   1.50118
 Alpha virt. eigenvalues --    1.51246   1.52395   1.52855   1.56171   1.56794
 Alpha virt. eigenvalues --    1.58600   1.59397   1.62111   1.62640   1.63693
 Alpha virt. eigenvalues --    1.66167   1.66487   1.69969   1.71420   1.72533
 Alpha virt. eigenvalues --    1.75190   1.77071   1.78634   1.80926   1.83328
 Alpha virt. eigenvalues --    1.85059   1.86172   1.88124   1.88815   1.93806
 Alpha virt. eigenvalues --    1.95133   1.97231   2.01984   2.04878   2.05809
 Alpha virt. eigenvalues --    2.10253   2.11265   2.14152   2.16781   2.17459
 Alpha virt. eigenvalues --    2.18268   2.19141   2.21256   2.23402   2.24462
 Alpha virt. eigenvalues --    2.26027   2.28550   2.29163   2.31800   2.32653
 Alpha virt. eigenvalues --    2.37188   2.38790   2.40697   2.41749   2.41897
 Alpha virt. eigenvalues --    2.44253   2.44499   2.45800   2.48596   2.49652
 Alpha virt. eigenvalues --    2.51032   2.51643   2.52935   2.54553   2.55582
 Alpha virt. eigenvalues --    2.57794   2.60682   2.62333   2.63050   2.63545
 Alpha virt. eigenvalues --    2.65291   2.67512   2.68687   2.70119   2.70522
 Alpha virt. eigenvalues --    2.70906   2.71769   2.72727   2.73969   2.76220
 Alpha virt. eigenvalues --    2.76433   2.79066   2.79856   2.81044   2.82957
 Alpha virt. eigenvalues --    2.83501   2.84143   2.86054   2.86988   2.87439
 Alpha virt. eigenvalues --    2.88028   2.89026   2.90403   2.91407   2.92678
 Alpha virt. eigenvalues --    2.93169   2.94433   2.94749   2.95819   2.96928
 Alpha virt. eigenvalues --    2.98595   2.99060   3.00439   3.01050   3.02244
 Alpha virt. eigenvalues --    3.03243   3.04013   3.04466   3.05675   3.06483
 Alpha virt. eigenvalues --    3.07223   3.08441   3.09136   3.09819   3.10846
 Alpha virt. eigenvalues --    3.11565   3.13077   3.14643   3.15563   3.16829
 Alpha virt. eigenvalues --    3.18117   3.18805   3.19719   3.20312   3.21652
 Alpha virt. eigenvalues --    3.23298   3.24323   3.25722   3.25924   3.28209
 Alpha virt. eigenvalues --    3.28808   3.29760   3.31240   3.31910   3.32249
 Alpha virt. eigenvalues --    3.34066   3.34417   3.35594   3.37135   3.37534
 Alpha virt. eigenvalues --    3.38937   3.39800   3.40810   3.41200   3.42128
 Alpha virt. eigenvalues --    3.43220   3.43933   3.45143   3.45275   3.45845
 Alpha virt. eigenvalues --    3.46835   3.48440   3.49571   3.50178   3.52517
 Alpha virt. eigenvalues --    3.53166   3.54196   3.55561   3.57329   3.59277
 Alpha virt. eigenvalues --    3.59849   3.60851   3.62069   3.62774   3.63629
 Alpha virt. eigenvalues --    3.65403   3.68163   3.69221   3.70432   3.71662
 Alpha virt. eigenvalues --    3.73217   3.74555   3.75783   3.76959   3.78094
 Alpha virt. eigenvalues --    3.78828   3.79949   3.80037   3.80771   3.81996
 Alpha virt. eigenvalues --    3.83135   3.84267   3.85349   3.86092   3.86922
 Alpha virt. eigenvalues --    3.89006   3.89213   3.91651   3.91978   3.92901
 Alpha virt. eigenvalues --    3.95609   3.96035   3.96679   3.97797   3.98871
 Alpha virt. eigenvalues --    4.00111   4.00591   4.01164   4.03229   4.04142
 Alpha virt. eigenvalues --    4.05215   4.06318   4.06712   4.07821   4.09355
 Alpha virt. eigenvalues --    4.10458   4.11564   4.12412   4.13627   4.14905
 Alpha virt. eigenvalues --    4.15872   4.16912   4.18211   4.19289   4.20718
 Alpha virt. eigenvalues --    4.21470   4.21803   4.24595   4.25639   4.27063
 Alpha virt. eigenvalues --    4.27991   4.28176   4.30098   4.31095   4.33581
 Alpha virt. eigenvalues --    4.34727   4.35129   4.36598   4.37586   4.39913
 Alpha virt. eigenvalues --    4.40725   4.40816   4.41588   4.43740   4.48071
 Alpha virt. eigenvalues --    4.49835   4.51252   4.53171   4.56855   4.59796
 Alpha virt. eigenvalues --    4.61374   4.62887   4.66517   4.69651   4.70174
 Alpha virt. eigenvalues --    4.70955   4.75680   4.76525   4.77703   4.79276
 Alpha virt. eigenvalues --    4.80487   4.80868   4.84246   4.84477   4.86924
 Alpha virt. eigenvalues --    4.88038   4.88955   4.90029   4.91016   4.95004
 Alpha virt. eigenvalues --    4.96294   4.97127   4.98464   5.00239   5.02637
 Alpha virt. eigenvalues --    5.03851   5.05204   5.06153   5.06502   5.08168
 Alpha virt. eigenvalues --    5.08914   5.09426   5.10845   5.11825   5.13743
 Alpha virt. eigenvalues --    5.14820   5.15999   5.17133   5.18091   5.19302
 Alpha virt. eigenvalues --    5.19702   5.21300   5.21878   5.22249   5.22629
 Alpha virt. eigenvalues --    5.23412   5.23824   5.25069   5.26741   5.28340
 Alpha virt. eigenvalues --    5.31603   5.33269   5.34483   5.36949   5.38667
 Alpha virt. eigenvalues --    5.43830   5.47102   5.48419   5.49102   5.51799
 Alpha virt. eigenvalues --    5.52034   5.54957   5.56321   5.57970   5.61780
 Alpha virt. eigenvalues --    5.62389   5.63218   5.67502   5.68906   5.71980
 Alpha virt. eigenvalues --    5.74649   5.75165   5.76415   5.78379   5.79167
 Alpha virt. eigenvalues --    5.80191   5.81865   5.83010   5.83825   5.86530
 Alpha virt. eigenvalues --    5.87571   5.91076   5.93317   5.96400   5.97824
 Alpha virt. eigenvalues --    6.00475   6.07927   6.10475   6.11261   6.14425
 Alpha virt. eigenvalues --    6.17076   6.18236   6.23763   6.43378   6.45368
 Alpha virt. eigenvalues --    6.46461   6.49944   6.50620   6.52819   6.53436
 Alpha virt. eigenvalues --    6.54806   6.58342   6.61585   6.69657   6.85847
 Alpha virt. eigenvalues --    6.86751   6.91878   6.93881   7.02761   7.04055
 Alpha virt. eigenvalues --    7.04516   7.07727   7.09594   7.11705   8.73329
 Alpha virt. eigenvalues --    9.16436   9.28496  11.56300  11.91695  12.07252
 Alpha virt. eigenvalues --   12.14663  12.35739  12.73709  12.96089  12.98159
 Alpha virt. eigenvalues --   13.51891  13.78302
          Condensed to atoms (all electrons):
              1          2          3          4          5          6
     1  C    4.549312   0.205326  -0.023603  -0.027806  -0.010508  -0.001093
     2  C    0.205326   5.429984   0.396220   0.407158   0.110075  -0.015259
     3  H   -0.023603   0.396220   0.458709  -0.010511  -0.039451   0.004073
     4  H   -0.027806   0.407158  -0.010511   0.500298  -0.030788  -0.003009
     5  C   -0.010508   0.110075  -0.039451  -0.030788   5.486560   0.385627
     6  H   -0.001093  -0.015259   0.004073  -0.003009   0.385627   0.464789
     7  C    0.000090  -0.056506  -0.003325   0.001770   0.187817  -0.024672
     8  N    0.374337  -0.116952   0.001839   0.004589   0.021498   0.002766
     9  H   -0.019083   0.011156  -0.000591   0.000011  -0.003594  -0.000210
    10  H   -0.027199   0.015428  -0.000213  -0.000371  -0.002293  -0.000294
    11  N   -0.029941  -0.013038  -0.004011   0.004114   0.186859  -0.031335
    12  H   -0.006037   0.009416   0.003178   0.000137  -0.057692   0.007522
    13  O    0.722376  -0.100118   0.000741   0.006404   0.008108   0.000416
    14  O    0.001858   0.010462   0.017567   0.000120  -0.107145   0.002251
    15  N    0.000054   0.005963   0.000984  -0.000053  -0.090017   0.003730
    16  H    0.000015  -0.000390  -0.000232   0.000027   0.001095   0.000068
    17  C   -0.000010  -0.000612  -0.000014  -0.000021   0.010242  -0.000431
    18  H   -0.000007  -0.000090  -0.000003  -0.000012   0.001194   0.000051
    19  H    0.000000   0.000006  -0.000002   0.000000   0.000066  -0.000102
    20  H    0.000003  -0.000063  -0.000036   0.000035  -0.000098   0.000075
    21  C    0.003608   0.000913  -0.000784  -0.000201  -0.062473   0.001970
    22  C   -0.000129  -0.000115  -0.000077   0.000014   0.012251   0.001263
    23  H    0.000052  -0.000019   0.000002  -0.000002  -0.000501  -0.000028
    24  H    0.000002  -0.000004  -0.000001  -0.000002   0.000013  -0.000116
    25  H    0.000012  -0.000064   0.000008  -0.000001  -0.002451  -0.000226
    26  O   -0.000192   0.001219  -0.000065   0.000060   0.031176   0.016191
              7          8          9         10         11         12
     1  C    0.000090   0.374337  -0.019083  -0.027199  -0.029941  -0.006037
     2  C   -0.056506  -0.116952   0.011156   0.015428  -0.013038   0.009416
     3  H   -0.003325   0.001839  -0.000591  -0.000213  -0.004011   0.003178
     4  H    0.001770   0.004589   0.000011  -0.000371   0.004114   0.000137
     5  C    0.187817   0.021498  -0.003594  -0.002293   0.186859  -0.057692
     6  H   -0.024672   0.002766  -0.000210  -0.000294  -0.031335   0.007522
     7  C    4.676480  -0.000126   0.000010   0.000150   0.023459   0.003220
     8  N   -0.000126   6.473660   0.363230   0.348762  -0.139725   0.011056
     9  H    0.000010   0.363230   0.560032  -0.026116   0.003817  -0.001676
    10  H    0.000150   0.348762  -0.026116   0.549846   0.010498  -0.000649
    11  N    0.023459  -0.139725   0.003817   0.010498   6.778377   0.342473
    12  H    0.003220   0.011056  -0.001676  -0.000649   0.342473   0.584068
    13  O   -0.000375  -0.117886  -0.000527   0.006567  -0.000439   0.000140
    14  O    0.665607  -0.000014  -0.000001   0.000000   0.001953   0.001651
    15  N    0.395353  -0.000015   0.000005  -0.000001   0.002023  -0.001018
    16  H   -0.006533  -0.000022   0.000004   0.000002  -0.003832  -0.000173
    17  C   -0.055027   0.000002   0.000000   0.000000  -0.000047  -0.000064
    18  H   -0.012084   0.000000   0.000000   0.000000  -0.000062   0.000016
    19  H    0.006831   0.000000   0.000000   0.000000   0.000026  -0.000014
    20  H   -0.002379   0.000000   0.000000   0.000000  -0.000046  -0.000003
    21  C   -0.006706   0.008907  -0.000410  -0.000287   0.199700   0.009239
    22  C   -0.004454  -0.000978   0.000227   0.000127  -0.074529  -0.007831
    23  H    0.000108   0.000838  -0.000075  -0.000055   0.000388   0.000795
    24  H    0.000066  -0.000007   0.000004   0.000002   0.005714  -0.000982
    25  H    0.001421   0.000126  -0.000063  -0.000018   0.006870   0.002328
    26  O   -0.029462  -0.000240   0.000012   0.000021  -0.106553   0.002051
             13         14         15         16         17         18
     1  C    0.722376   0.001858   0.000054   0.000015  -0.000010  -0.000007
     2  C   -0.100118   0.010462   0.005963  -0.000390  -0.000612  -0.000090
     3  H    0.000741   0.017567   0.000984  -0.000232  -0.000014  -0.000003
     4  H    0.006404   0.000120  -0.000053   0.000027  -0.000021  -0.000012
     5  C    0.008108  -0.107145  -0.090017   0.001095   0.010242   0.001194
     6  H    0.000416   0.002251   0.003730   0.000068  -0.000431   0.000051
     7  C   -0.000375   0.665607   0.395353  -0.006533  -0.055027  -0.012084
     8  N   -0.117886  -0.000014  -0.000015  -0.000022   0.000002   0.000000
     9  H   -0.000527  -0.000001   0.000005   0.000004   0.000000   0.000000
    10  H    0.006567   0.000000  -0.000001   0.000002   0.000000   0.000000
    11  N   -0.000439   0.001953   0.002023  -0.003832  -0.000047  -0.000062
    12  H    0.000140   0.001651  -0.001018  -0.000173  -0.000064   0.000016
    13  O    7.811222   0.000000   0.000000   0.000000   0.000000   0.000000
    14  O    0.000000   7.827970  -0.092751  -0.001784  -0.007299   0.012572
    15  N    0.000000  -0.092751   6.482852   0.365497   0.252583  -0.042265
    16  H    0.000000  -0.001784   0.365497   0.568318  -0.024272  -0.012728
    17  C    0.000000  -0.007299   0.252583  -0.024272   4.810718   0.406180
    18  H    0.000000   0.012572  -0.042265  -0.012728   0.406180   0.621873
    19  H    0.000000   0.001183  -0.030712  -0.002741   0.404643  -0.039728
    20  H    0.000000  -0.000142  -0.032350   0.007600   0.402890  -0.046522
    21  C    0.000031  -0.000628   0.002065  -0.002815  -0.000122  -0.000310
    22  C    0.000000   0.000021  -0.002923   0.002661   0.000026  -0.000005
    23  H    0.000000   0.000000   0.000032   0.000003  -0.000002  -0.000001
    24  H    0.000000   0.000020   0.001880  -0.000199  -0.000027   0.000074
    25  H    0.000000  -0.000041   0.000371  -0.000127  -0.000026  -0.000014
    26  O    0.000000   0.000023  -0.034337  -0.002211   0.001994  -0.000112
             19         20         21         22         23         24
     1  C    0.000000   0.000003   0.003608  -0.000129   0.000052   0.000002
     2  C    0.000006  -0.000063   0.000913  -0.000115  -0.000019  -0.000004
     3  H   -0.000002  -0.000036  -0.000784  -0.000077   0.000002  -0.000001
     4  H    0.000000   0.000035  -0.000201   0.000014  -0.000002  -0.000002
     5  C    0.000066  -0.000098  -0.062473   0.012251  -0.000501   0.000013
     6  H   -0.000102   0.000075   0.001970   0.001263  -0.000028  -0.000116
     7  C    0.006831  -0.002379  -0.006706  -0.004454   0.000108   0.000066
     8  N    0.000000   0.000000   0.008907  -0.000978   0.000838  -0.000007
     9  H    0.000000   0.000000  -0.000410   0.000227  -0.000075   0.000004
    10  H    0.000000   0.000000  -0.000287   0.000127  -0.000055   0.000002
    11  N    0.000026  -0.000046   0.199700  -0.074529   0.000388   0.005714
    12  H   -0.000014  -0.000003   0.009239  -0.007831   0.000795  -0.000982
    13  O    0.000000   0.000000   0.000031   0.000000   0.000000   0.000000
    14  O    0.001183  -0.000142  -0.000628   0.000021   0.000000   0.000020
    15  N   -0.030712  -0.032350   0.002065  -0.002923   0.000032   0.001880
    16  H   -0.002741   0.007600  -0.002815   0.002661   0.000003  -0.000199
    17  C    0.404643   0.402890  -0.000122   0.000026  -0.000002  -0.000027
    18  H   -0.039728  -0.046522  -0.000310  -0.000005  -0.000001   0.000074
    19  H    0.581068  -0.017763  -0.000028  -0.000018   0.000001   0.000023
    20  H   -0.017763   0.578672   0.000028   0.000015   0.000000  -0.000015
    21  C   -0.000028   0.000028   4.754671   0.281302  -0.020552  -0.033744
    22  C   -0.000018   0.000015   0.281302   4.994911   0.387367   0.391888
    23  H    0.000001   0.000000  -0.020552   0.387367   0.539477  -0.014418
    24  H    0.000023  -0.000015  -0.033744   0.391888  -0.014418   0.549997
    25  H    0.000010   0.000002  -0.042386   0.380188  -0.023666  -0.034388
    26  O    0.000178   0.000024   0.664807  -0.067139   0.000426   0.005789
             25         26
     1  C    0.000012  -0.000192
     2  C   -0.000064   0.001219
     3  H    0.000008  -0.000065
     4  H   -0.000001   0.000060
     5  C   -0.002451   0.031176
     6  H   -0.000226   0.016191
     7  C    0.001421  -0.029462
     8  N    0.000126  -0.000240
     9  H   -0.000063   0.000012
    10  H   -0.000018   0.000021
    11  N    0.006870  -0.106553
    12  H    0.002328   0.002051
    13  O    0.000000   0.000000
    14  O   -0.000041   0.000023
    15  N    0.000371  -0.034337
    16  H   -0.000127  -0.002211
    17  C   -0.000026   0.001994
    18  H   -0.000014  -0.000112
    19  H    0.000010   0.000178
    20  H    0.000002   0.000024
    21  C   -0.042386   0.664807
    22  C    0.380188  -0.067139
    23  H   -0.023666   0.000426
    24  H   -0.034388   0.005789
    25  H    0.603906   0.003354
    26  O    0.003354   7.866002
 Mulliken atomic charges:
              1
     1  C    0.288560
     2  C   -0.300096
     3  H    0.199595
     4  H    0.148040
     5  C   -0.035570
     6  H    0.185985
     7  C    0.239264
     8  N   -0.235644
     9  H    0.113838
    10  H    0.126091
    11  N   -0.162711
    12  H    0.098850
    13  O   -0.336661
    14  O   -0.333451
    15  N   -0.186948
    16  H    0.112769
    17  C   -0.201304
    18  H    0.111984
    19  H    0.097074
    20  H    0.110074
    21  C    0.244205
    22  C   -0.294065
    23  H    0.129829
    24  H    0.128432
    25  H    0.104876
    26  O   -0.353017
 Sum of Mulliken atomic charges =   0.00000
 Mulliken charges with hydrogens summed into heavy atoms:
              1
     1  C    0.288560
     2  C    0.047539
     5  C    0.150415
     7  C    0.239264
     8  N    0.004285
    11  N   -0.063861
    13  O   -0.336661
    14  O   -0.333451
    15  N   -0.074179
    17  C    0.117828
    21  C    0.244205
    22  C    0.069072
    26  O   -0.353017
 Sum of Mulliken charges with hydrogens summed into heavy atoms =   0.00000
 Electronic spatial extent (au):  <R**2>=           2741.5881
 Charge=              0.0000 electrons
 Dipole moment (field-independent basis, Debye):
    X=              1.4109    Y=              2.9460    Z=             -3.3244  Tot=              4.6606
 Quadrupole moment (field-independent basis, Debye-Ang):
   XX=            -85.4992   YY=            -77.8848   ZZ=            -76.3017
   XY=             -7.4023   XZ=             -0.5843   YZ=             -9.4677
 Traceless Quadrupole moment (field-independent basis, Debye-Ang):
   XX=             -5.6040   YY=              2.0105   ZZ=              3.5936
   XY=             -7.4023   XZ=             -0.5843   YZ=             -9.4677
 Octapole moment (field-independent basis, Debye-Ang**2):
  XXX=             79.9291  YYY=             30.3562  ZZZ=             -7.1846  XYY=             -4.6475
  XXY=             29.1509  XXZ=            -20.3668  XZZ=            -14.5237  YZZ=             -2.0631
  YYZ=              1.8630  XYZ=            -12.8480
 Hexadecapole moment (field-independent basis, Debye-Ang**3):
 XXXX=          -2343.7796 YYYY=          -1094.3482 ZZZZ=           -225.2287 XXXY=           -160.3074
 XXXZ=             30.5635 YYYX=              9.5245 YYYZ=            -27.5083 ZZZX=              1.1472
 ZZZY=             -7.8251 XXYY=           -527.9541 XXZZ=           -384.1709 YYZZ=           -233.3416
 XXYZ=             -9.0274 YYXZ=              2.9501 ZZXY=            -12.5299
 N-N= 8.498383181942D+02 E-N=-3.252108346119D+03  KE= 6.592021555462D+02
 No NMR shielding tensors so no spin-rotation constants.
 Leave Link  601 at Fri Mar 08 12:48:41 2013, MaxMem= 4294967296 cpu:       2.0
 (Enter C:\G09W\l701.exe)
 Compute integral first derivatives.
 ... and contract with generalized density number  0.
 Leave Link  701 at Fri Mar 08 12:48:42 2013, MaxMem= 4294967296 cpu:       1.0
 (Enter C:\G09W\l702.exe)
 L702 exits ... SP integral derivatives will be done elsewhere.
 Leave Link  702 at Fri Mar 08 12:48:43 2013, MaxMem= 4294967296 cpu:       0.0
 (Enter C:\G09W\l703.exe)
 Compute integral first derivatives, UseDBF=F ICtDFT=           0.
 Integral derivatives from FoFDir, PRISM(SPDF).
 Calling FoFJK, ICntrl=      2127 FMM=F ISym2X=0 I1Cent= 0 IOpClX= 0 NMat=1 NMatS=1 NMatT=0.
 FoFCou: FMM=F IPFlag=           0 FMFlag=      100000 FMFlg1=         800
         NFxFlg=           0 DoJE=F BraDBF=F KetDBF=F FulRan=T
         Omega=  0.000000  0.000000  1.000000  0.000000  0.000000 ICntrl=    2127 IOpCl=  0
         NMat0=    1 NMatS0=    1 NMatT0=    0 NMatD0=    1 NMtDS0=    0 NMtDT0=    0
         I1Cent=           0 NGrid=           0.
 Symmetry not used in FoFCou.
 Leave Link  703 at Fri Mar 08 12:51:08 2013, MaxMem= 4294967296 cpu:     145.0
 (Enter C:\G09W\l716.exe)
 Dipole        = 5.55103415D-01 1.15905374D+00-1.30790239D+00
 ***** Axes restored to original set *****
 -------------------------------------------------------------------
 Center     Atomic                   Forces (Hartrees/Bohr)
 Number     Number              X              Y              Z
 -------------------------------------------------------------------
      1        6          -0.074393400    0.011393187   -0.026754951
      2        6           0.010709186   -0.043305235   -0.025453291
      3        1          -0.003998765    0.001255634    0.014304485
      4        1          -0.007793760    0.009700550   -0.001667912
      5        6          -0.009887760   -0.002379027    0.025864336
      6        1           0.008340214    0.000428005   -0.011775192
      7        6          -0.005977077    0.033912770    0.058778642
      8        7          -0.032100670    0.037797197   -0.006754259
      9        1           0.000666001   -0.007445561    0.008174979
     10        1          -0.015906753   -0.001042806   -0.005229173
     11        7           0.112718736    0.006329392    0.009854168
     12        1          -0.006366370   -0.008978853    0.007849880
     13        8           0.075713588   -0.022470171    0.020995172
     14        8           0.028705139   -0.036481505   -0.060508376
     15        7          -0.034064327    0.039879547    0.001041807
     16        1           0.003757549   -0.012631176   -0.001503929
     17        6          -0.010014565   -0.019611854    0.003454663
     18        1           0.000179166    0.008649885    0.015495500
     19        1           0.011877466   -0.002704745   -0.003379377
     20        1          -0.002663032    0.009676002   -0.005069843
     21        6           0.025342868    0.041561276   -0.041146160
     22        6          -0.023713888    0.029644476   -0.008599791
     23        1          -0.001800735   -0.010384300   -0.007680809
     24        1           0.011082111    0.003450902   -0.000831694
     25        1          -0.006551123   -0.007345906    0.012180580
     26        8          -0.053859798   -0.058897683    0.028360545
 -------------------------------------------------------------------
 Cartesian Forces:  Max     0.112718736 RMS     0.027913866
 Leave Link  716 at Fri Mar 08 12:51:08 2013, MaxMem= 4294967296 cpu:       0.0
 (Enter C:\G09W\l103.exe)

 GradGradGradGradGradGradGradGradGradGradGradGradGradGradGradGradGradGrad
 Berny optimization.
 Internal  Forces:  Max     0.165232231 RMS     0.028801520
 Search for a local minimum.
 Step number   1 out of a maximum of  128
 All quantities printed in internal units (Hartrees-Bohrs-Radians)
 RMS Force = .28802D-01 SwitMx=.10000D-02 MixMth= 1
 Mixed Optimization -- RFO/linear search
 Second derivative matrix not updated -- first step.
 ITU=  0
     Eigenvalues ---    0.00237   0.00237   0.00237   0.00237   0.00448
     Eigenvalues ---    0.00448   0.00448   0.00766   0.00766   0.00766
     Eigenvalues ---    0.00766   0.00766   0.03399   0.03399   0.04356
     Eigenvalues ---    0.04828   0.05056   0.05410   0.05453   0.06194
     Eigenvalues ---    0.07243   0.07243   0.07537   0.07537   0.08669
     Eigenvalues ---    0.11287   0.11287   0.12376   0.16000   0.16000
     Eigenvalues ---    0.16000   0.16000   0.16000   0.16000   0.16000
     Eigenvalues ---    0.16000   0.16855   0.17980   0.21983   0.23464
     Eigenvalues ---    0.23464   0.25000   0.25000   0.25000   0.25000
     Eigenvalues ---    0.25000   0.25000   0.28519   0.28519   0.28519
     Eigenvalues ---    0.28519   0.35740   0.35740   0.35740   0.35740
     Eigenvalues ---    0.35740   0.37230   0.37230   0.37230   0.37230
     Eigenvalues ---    0.37230   0.37230   0.37230   0.37230   0.37230
     Eigenvalues ---    0.47688   0.47688   0.47688   0.47688   0.80209
     Eigenvalues ---    0.80209   0.80209
 RFO step:  Lambda=-2.10099861D-01 EMin= 2.36824049D-03
 Linear search not attempted -- first point.
 Maximum step size (   0.300) exceeded in Quadratic search.
    -- Step size scaled by   0.488
 Iteration  1 RMS(Cart)=  0.21890843 RMS(Int)=  0.01161084
 Iteration  2 RMS(Cart)=  0.03676021 RMS(Int)=  0.00069753
 Iteration  3 RMS(Cart)=  0.00078804 RMS(Int)=  0.00065203
 Iteration  4 RMS(Cart)=  0.00000087 RMS(Int)=  0.00065203
 Variable       Old X    -DE/DX   Delta X   Delta X   Delta X     New X
                                 (Linear)    (Quad)   (Total)
    R1        2.91018   0.02131   0.00000   0.02098   0.02098   2.93116
    R2        2.77790  -0.04013   0.00000  -0.03448  -0.03448   2.74342
    R3        2.37803  -0.08127   0.00000  -0.03915  -0.03915   2.33888
    R4        2.02201   0.01480   0.00000   0.01239   0.01239   2.03440
    R5        2.02201   0.01062   0.00000   0.00889   0.00889   2.03090
    R6        2.91018   0.03713   0.00000   0.03655   0.03655   2.94673
    R7        2.02201   0.01316   0.00000   0.01102   0.01102   2.03302
    R8        2.91018   0.00892   0.00000   0.00878   0.00878   2.91896
    R9        2.77790   0.00780   0.00000   0.00670   0.00670   2.78460
   R10        2.37803  -0.07583   0.00000  -0.03653  -0.03653   2.34150
   R11        2.77790  -0.03476   0.00000  -0.02987  -0.02987   2.74803
   R12        1.88973   0.01021   0.00000   0.00725   0.00725   1.89697
   R13        1.88973   0.01141   0.00000   0.00810   0.00810   1.89783
   R14        1.88973   0.01203   0.00000   0.00854   0.00854   1.89826
   R15        2.77790  -0.04354   0.00000  -0.03741  -0.03741   2.74048
   R16        1.88973   0.01050   0.00000   0.00745   0.00745   1.89718
   R17        2.77790   0.00112   0.00000   0.00096   0.00096   2.77886
   R18        2.02201   0.01538   0.00000   0.01288   0.01288   2.03489
   R19        2.02201   0.01242   0.00000   0.01040   0.01040   2.03240
   R20        2.02201   0.01124   0.00000   0.00941   0.00941   2.03142
   R21        2.91018  -0.02218   0.00000  -0.02184  -0.02184   2.88834
   R22        2.37803  -0.08204   0.00000  -0.03952  -0.03952   2.33851
   R23        2.02201   0.01301   0.00000   0.01089   0.01089   2.03290
   R24        2.02201   0.01098   0.00000   0.00920   0.00920   2.03120
   R25        2.02201   0.01497   0.00000   0.01253   0.01253   2.03454
    A1        2.09440   0.07923   0.00000   0.08397   0.08397   2.17836
    A2        2.09440  -0.04187   0.00000  -0.04437  -0.04437   2.05002
    A3        2.09440  -0.03737   0.00000  -0.03960  -0.03961   2.05479
    A4        1.91063  -0.03833   0.00000  -0.03419  -0.03660   1.87403
    A5        1.91063  -0.06331   0.00000  -0.07822  -0.07723   1.83341
    A6        1.91063   0.16523   0.00000   0.19171   0.19215   2.10278
    A7        1.91063   0.01999   0.00000   0.00839   0.00490   1.91553
    A8        1.91063  -0.03978   0.00000  -0.03766  -0.03975   1.87088
    A9        1.91063  -0.04380   0.00000  -0.05003  -0.04774   1.86290
   A10        1.91063  -0.00639   0.00000  -0.01138  -0.01192   1.89871
   A11        1.91063  -0.04920   0.00000  -0.06235  -0.06259   1.84804
   A12        1.91063   0.05253   0.00000   0.06796   0.06814   1.97877
   A13        1.91063   0.01560   0.00000   0.01456   0.01370   1.92433
   A14        1.91063  -0.01400   0.00000  -0.01237  -0.01257   1.89807
   A15        1.91063   0.00146   0.00000   0.00359   0.00485   1.91548
   A16        2.09440  -0.01804   0.00000  -0.01912  -0.01913   2.07526
   A17        2.09440   0.02864   0.00000   0.03035   0.03034   2.12473
   A18        2.09440  -0.01059   0.00000  -0.01123  -0.01124   2.08316
   A19        1.91063   0.00536   0.00000   0.00623   0.00623   1.91686
   A20        1.91063  -0.01320   0.00000  -0.01822  -0.01822   1.89241
   A21        1.91063  -0.00080   0.00000  -0.00271  -0.00272   1.90791
   A22        1.91063  -0.02231   0.00000  -0.02150  -0.02257   1.88806
   A23        1.91063   0.07210   0.00000   0.08179   0.08132   1.99195
   A24        1.91063  -0.00556   0.00000   0.00485   0.00453   1.91517
   A25        1.91063  -0.00012   0.00000   0.00102   0.00102   1.91165
   A26        1.91063   0.00659   0.00000   0.00746   0.00746   1.91809
   A27        1.91063  -0.00261   0.00000  -0.00284  -0.00285   1.90779
   A28        1.91063   0.01403   0.00000   0.01904   0.01904   1.92967
[...]
 Alpha virt. eigenvalues --    1.39932   1.40763   1.41515   1.42767   1.44430
 Alpha virt. eigenvalues --    1.45254   1.46480   1.48585   1.49125   1.50113
 Alpha virt. eigenvalues --    1.52231   1.55168   1.55940   1.56934   1.58278
 Alpha virt. eigenvalues --    1.61593   1.63000   1.63798   1.66059   1.66067
 Alpha virt. eigenvalues --    1.69067   1.71440   1.74825   1.76023   1.76956
 Alpha virt. eigenvalues --    1.77982   1.78840   1.82488   1.83978   1.85427
 Alpha virt. eigenvalues --    1.87554   1.88593   1.91870   1.95932   1.99530
 Alpha virt. eigenvalues --    2.01360   2.02447   2.05425   2.09224   2.09303
 Alpha virt. eigenvalues --    2.11528   2.13212   2.14960   2.16488   2.17352
 Alpha virt. eigenvalues --    2.19527   2.20280   2.24307   2.25708   2.26200
 Alpha virt. eigenvalues --    2.28314   2.28516   2.31005   2.32996   2.34755
 Alpha virt. eigenvalues --    2.36148   2.39030   2.39574   2.41977   2.43503
 Alpha virt. eigenvalues --    2.44341   2.46186   2.49185   2.51228   2.51680
 Alpha virt. eigenvalues --    2.53383   2.54538   2.55153   2.57068   2.57998
 Alpha virt. eigenvalues --    2.60499   2.61534   2.63537   2.64373   2.65639
 Alpha virt. eigenvalues --    2.66448   2.68908   2.69629   2.70704   2.71184
 Alpha virt. eigenvalues --    2.71812   2.72893   2.74102   2.75437   2.75697
 Alpha virt. eigenvalues --    2.76451   2.78268   2.79789   2.80107   2.81985
 Alpha virt. eigenvalues --    2.83972   2.84724   2.86037   2.87476   2.88416
 Alpha virt. eigenvalues --    2.89203   2.90961   2.91075   2.92453   2.92947
 Alpha virt. eigenvalues --    2.94070   2.94847   2.95724   2.96952   2.98133
 Alpha virt. eigenvalues --    2.98771   3.00763   3.01043   3.02746   3.03506
 Alpha virt. eigenvalues --    3.03798   3.05403   3.05977   3.06624   3.08934
 Alpha virt. eigenvalues --    3.09535   3.10206   3.11083   3.11874   3.13884
 Alpha virt. eigenvalues --    3.16074   3.16741   3.17598   3.18069   3.19129
 Alpha virt. eigenvalues --    3.19902   3.20822   3.22242   3.22752   3.23641
 Alpha virt. eigenvalues --    3.25283   3.25853   3.27241   3.27714   3.28335
 Alpha virt. eigenvalues --    3.29564   3.31130   3.31192   3.32308   3.32850
 Alpha virt. eigenvalues --    3.33976   3.34594   3.35480   3.36115   3.37302
 Alpha virt. eigenvalues --    3.38849   3.40102   3.40530   3.41582   3.43273
 Alpha virt. eigenvalues --    3.43989   3.44614   3.47022   3.47123   3.48229
 Alpha virt. eigenvalues --    3.49604   3.50401   3.51578   3.53269   3.53814
 Alpha virt. eigenvalues --    3.55525   3.56053   3.56396   3.56862   3.58880
 Alpha virt. eigenvalues --    3.60485   3.61797   3.65040   3.65472   3.67495
 Alpha virt. eigenvalues --    3.69110   3.71084   3.71371   3.72055   3.72592
 Alpha virt. eigenvalues --    3.72894   3.74665   3.74916   3.78083   3.78406
 Alpha virt. eigenvalues --    3.80061   3.80419   3.81584   3.82231   3.84250
 Alpha virt. eigenvalues --    3.85179   3.86155   3.87686   3.88029   3.89744
 Alpha virt. eigenvalues --    3.90663   3.91709   3.93402   3.94974   3.95971
 Alpha virt. eigenvalues --    3.97045   3.97725   3.98365   4.00153   4.00557
 Alpha virt. eigenvalues --    4.01329   4.03066   4.03627   4.05089   4.05689
 Alpha virt. eigenvalues --    4.06626   4.07031   4.07965   4.08713   4.09225
 Alpha virt. eigenvalues --    4.10929   4.13148   4.13208   4.14385   4.16093
 Alpha virt. eigenvalues --    4.16869   4.18652   4.20390   4.20493   4.21124
 Alpha virt. eigenvalues --    4.21833   4.23097   4.25016   4.27003   4.27182
 Alpha virt. eigenvalues --    4.28040   4.29322   4.30245   4.33371   4.34767
 Alpha virt. eigenvalues --    4.36706   4.37709   4.39894   4.40767   4.43744
 Alpha virt. eigenvalues --    4.46117   4.48727   4.49580   4.51101   4.52072
 Alpha virt. eigenvalues --    4.57086   4.59229   4.60369   4.62166   4.63621
 Alpha virt. eigenvalues --    4.65556   4.67106   4.67984   4.68548   4.70694
 Alpha virt. eigenvalues --    4.72526   4.73977   4.75985   4.76548   4.77185
 Alpha virt. eigenvalues --    4.77690   4.78678   4.80175   4.80784   4.81581
 Alpha virt. eigenvalues --    4.82547   4.85992   4.86903   4.88412   4.91385
 Alpha virt. eigenvalues --    4.92199   4.95035   4.96630   4.97912   4.98939
 Alpha virt. eigenvalues --    4.99404   5.01119   5.01512   5.02611   5.03670
 Alpha virt. eigenvalues --    5.05308   5.07611   5.08503   5.08916   5.13462
 Alpha virt. eigenvalues --    5.14779   5.15147   5.16304   5.16508   5.18027
 Alpha virt. eigenvalues --    5.19952   5.21971   5.22133   5.23179   5.24128
 Alpha virt. eigenvalues --    5.25742   5.27303   5.28933   5.29920   5.30680
 Alpha virt. eigenvalues --    5.33320   5.33846   5.35153   5.35976   5.39058
 Alpha virt. eigenvalues --    5.40751   5.44296   5.49109   5.50658   5.51910
 Alpha virt. eigenvalues --    5.54362   5.58748   5.59846   5.60233   5.63484
 Alpha virt. eigenvalues --    5.64474   5.68188   5.69756   5.73466   5.74512
 Alpha virt. eigenvalues --    5.75682   5.76825   5.77233   5.78294   5.80937
 Alpha virt. eigenvalues --    5.82340   5.83234   5.84805   5.91478   5.93132
 Alpha virt. eigenvalues --    5.95172   5.96587   6.00368   6.02865   6.07800
 Alpha virt. eigenvalues --    6.11371   6.19823   6.22857   6.23754   6.29725
 Alpha virt. eigenvalues --    6.32807   6.39177   6.45280   6.47166   6.50792
 Alpha virt. eigenvalues --    6.53118   6.58412   6.61017   6.63777   6.67635
 Alpha virt. eigenvalues --    6.77927   6.84400   6.88555   6.90521   6.91451
 Alpha virt. eigenvalues --    6.92579   6.93045   6.97333   7.08275   7.10916
 Alpha virt. eigenvalues --    7.13643   7.16401   7.20633   7.21905   9.12598
 Alpha virt. eigenvalues --    9.64449   9.80501  11.93680  12.41858  12.70037
 Alpha virt. eigenvalues --   12.80804  13.10944  13.32277  13.49089  13.65060
 Alpha virt. eigenvalues --   13.89547  14.05612
          Condensed to atoms (all electrons):
              1          2          3          4          5          6
     1  C    4.573583   0.180877  -0.037541  -0.017769  -0.030193  -0.008480
     2  C    0.180877   5.425799   0.417959   0.400857   0.154087   0.012190
     3  H   -0.037541   0.417959   0.457631  -0.011159  -0.039263   0.006176
     4  H   -0.017769   0.400857  -0.011159   0.495180  -0.043055  -0.002230
     5  C   -0.030193   0.154087  -0.039263  -0.043055   5.607682   0.373288
     6  H   -0.008480   0.012190   0.006176  -0.002230   0.373288   0.479199
     7  C    0.002162  -0.062920  -0.003782  -0.001028   0.148261  -0.023363
     8  N    0.375478  -0.087135   0.001772  -0.000897   0.005721   0.003511
     9  H   -0.017854   0.005880   0.000281   0.000227  -0.000748   0.000434
    10  H   -0.024305   0.015846  -0.000523  -0.000632  -0.000827  -0.000215
    11  N    0.008451  -0.045063  -0.001795   0.003709   0.188519  -0.046927
    12  H   -0.010323  -0.004351   0.003549   0.000902  -0.029752   0.004868
    13  O    0.712665  -0.093025   0.002532   0.003401   0.000059   0.000112
    14  O    0.002838   0.028509   0.010820   0.005725  -0.120657   0.001642
    15  N    0.000201   0.008859   0.000458   0.000106  -0.089223  -0.001066
    16  H   -0.000080  -0.000188  -0.000086  -0.000062   0.011025  -0.001135
    17  C   -0.000008  -0.000737  -0.000033  -0.000009   0.008916  -0.000724
    18  H   -0.000001   0.000038   0.000015  -0.000004   0.000379   0.000096
    19  H    0.000000   0.000018  -0.000002   0.000012  -0.000790  -0.000030
    20  H   -0.000006  -0.000482  -0.000105  -0.000051   0.004944  -0.000382
    21  C    0.001434   0.002656  -0.001114   0.000034  -0.050863  -0.015022
    22  C    0.000032   0.000203  -0.000060   0.000034   0.009240   0.000781
    23  H   -0.000061   0.000085   0.000009  -0.000002  -0.000421   0.000187
    24  H    0.000041  -0.000085  -0.000013  -0.000001  -0.000340  -0.000171
    25  H    0.000249  -0.000184  -0.000025  -0.000007   0.000038  -0.000379
    26  O   -0.000384   0.002612  -0.000014   0.000048   0.031450   0.015011
              7          8          9         10         11         12
     1  C    0.002162   0.375478  -0.017854  -0.024305   0.008451  -0.010323
     2  C   -0.062920  -0.087135   0.005880   0.015846  -0.045063  -0.004351
     3  H   -0.003782   0.001772   0.000281  -0.000523  -0.001795   0.003549
     4  H   -0.001028  -0.000897   0.000227  -0.000632   0.003709   0.000902
     5  C    0.148261   0.005721  -0.000748  -0.000827   0.188519  -0.029752
     6  H   -0.023363   0.003511   0.000434  -0.000215  -0.046927   0.004868
     7  C    4.536005   0.000116   0.000015   0.000065  -0.004392  -0.000190
     8  N    0.000116   6.268610   0.370789   0.359015  -0.001199   0.003218
     9  H    0.000015   0.370789   0.527461  -0.036345   0.000080  -0.000228
    10  H    0.000065   0.359015  -0.036345   0.539924   0.000104  -0.000341
    11  N   -0.004392  -0.001199   0.000080   0.000104   6.581559   0.366422
    12  H   -0.000190   0.003218  -0.000228  -0.000341   0.366422   0.465524
    13  O   -0.000896  -0.118994   0.004814   0.011327  -0.022531   0.040383
    14  O    0.728838  -0.000026  -0.000039   0.000001   0.001945  -0.000108
    15  N    0.487047   0.000000  -0.000001   0.000000  -0.001548   0.000157
    16  H   -0.035841  -0.000003   0.000002   0.000000  -0.005826  -0.000331
    17  C   -0.061595   0.000000   0.000000   0.000000  -0.000724   0.000004
    18  H    0.001141   0.000000   0.000000   0.000000   0.000152  -0.000011
    19  H    0.004004   0.000000   0.000000   0.000000  -0.000003   0.000003
    20  H   -0.015933   0.000000   0.000000   0.000000  -0.000233   0.000002
    21  C    0.003680  -0.000504   0.000012   0.000030   0.374218  -0.016838
    22  C   -0.001359  -0.000029   0.000001   0.000002  -0.059833  -0.002928
    23  H    0.000051  -0.000001   0.000000   0.000000   0.002077   0.000256
    24  H    0.000101   0.000000   0.000000   0.000000  -0.001456   0.000025
    25  H    0.000188  -0.000039  -0.000001   0.000009   0.008700  -0.001574
    26  O   -0.020800   0.000002   0.000000   0.000000  -0.134425   0.003176
             13         14         15         16         17         18
     1  C    0.712665   0.002838   0.000201  -0.000080  -0.000008  -0.000001
     2  C   -0.093025   0.028509   0.008859  -0.000188  -0.000737   0.000038
     3  H    0.002532   0.010820   0.000458  -0.000086  -0.000033   0.000015
     4  H    0.003401   0.005725   0.000106  -0.000062  -0.000009  -0.000004
     5  C    0.000059  -0.120657  -0.089223   0.011025   0.008916   0.000379
     6  H    0.000112   0.001642  -0.001066  -0.001135  -0.000724   0.000096
     7  C   -0.000896   0.728838   0.487047  -0.035841  -0.061595   0.001141
     8  N   -0.118994  -0.000026   0.000000  -0.000003   0.000000   0.000000
     9  H    0.004814  -0.000039  -0.000001   0.000002   0.000000   0.000000
    10  H    0.011327   0.000001   0.000000   0.000000   0.000000   0.000000
    11  N   -0.022531   0.001945  -0.001548  -0.005826  -0.000724   0.000152
    12  H    0.040383  -0.000108   0.000157  -0.000331   0.000004  -0.000011
    13  O    7.853876  -0.000004  -0.000005  -0.000004   0.000000   0.000000
    14  O   -0.000004   7.825147  -0.112307   0.003289  -0.015294   0.000069
    15  N   -0.000005  -0.112307   6.401017   0.379507   0.271021  -0.036827
    16  H   -0.000004   0.003289   0.379507   0.448893  -0.027586  -0.001659
    17  C    0.000000  -0.015294   0.271021  -0.027586   4.808149   0.398833
    18  H    0.000000   0.000069  -0.036827  -0.001659   0.398833   0.618486
    19  H    0.000000  -0.000017  -0.035142  -0.005666   0.402173  -0.042930
    20  H    0.000000   0.029755  -0.039757   0.004788   0.399090  -0.030257
    21  C   -0.000364  -0.000505   0.008778  -0.008174   0.000032  -0.000306
    22  C   -0.000331   0.000003  -0.000032   0.001927  -0.000047  -0.000015
    23  H   -0.000026   0.000000   0.000003  -0.000049  -0.000004   0.000001
    24  H    0.000010  -0.000002   0.000152  -0.000144   0.000019  -0.000016
    25  H    0.001345  -0.000001   0.000011  -0.000138   0.000001   0.000000
    26  O   -0.000014   0.000034  -0.021788   0.043864   0.000577   0.000119
             19         20         21         22         23         24
     1  C    0.000000  -0.000006   0.001434   0.000032  -0.000061   0.000041
     2  C    0.000018  -0.000482   0.002656   0.000203   0.000085  -0.000085
     3  H   -0.000002  -0.000105  -0.001114  -0.000060   0.000009  -0.000013
     4  H    0.000012  -0.000051   0.000034   0.000034  -0.000002  -0.000001
     5  C   -0.000790   0.004944  -0.050863   0.009240  -0.000421  -0.000340
     6  H   -0.000030  -0.000382  -0.015022   0.000781   0.000187  -0.000171
     7  C    0.004004  -0.015933   0.003680  -0.001359   0.000051   0.000101
     8  N    0.000000   0.000000  -0.000504  -0.000029  -0.000001   0.000000
     9  H    0.000000   0.000000   0.000012   0.000001   0.000000   0.000000
    10  H    0.000000   0.000000   0.000030   0.000002   0.000000   0.000000
    11  N   -0.000003  -0.000233   0.374218  -0.059833   0.002077  -0.001456
    12  H    0.000003   0.000002  -0.016838  -0.002928   0.000256   0.000025
    13  O    0.000000   0.000000  -0.000364  -0.000331  -0.000026   0.000010
    14  O   -0.000017   0.029755  -0.000505   0.000003   0.000000  -0.000002
    15  N   -0.035142  -0.039757   0.008778  -0.000032   0.000003   0.000152
    16  H   -0.005666   0.004788  -0.008174   0.001927  -0.000049  -0.000144
    17  C    0.402173   0.399090   0.000032  -0.000047  -0.000004   0.000019
    18  H   -0.042930  -0.030257  -0.000306  -0.000015   0.000001  -0.000016
    19  H    0.609279  -0.026128   0.000202   0.000003   0.000000   0.000001
    20  H   -0.026128   0.549726  -0.000019  -0.000005   0.000000   0.000003
    21  C    0.000202  -0.000019   4.539988   0.294117  -0.032483  -0.024916
    22  C    0.000003  -0.000005   0.294117   4.940269   0.392977   0.384584
    23  H    0.000000   0.000000  -0.032483   0.392977   0.570489  -0.025117
    24  H    0.000001   0.000003  -0.024916   0.384584  -0.025117   0.574807
    25  H    0.000000   0.000001  -0.051520   0.403728  -0.025235  -0.023817
    26  O   -0.000029  -0.000077   0.656033  -0.056126   0.003487   0.000164
             25         26
     1  C    0.000249  -0.000384
     2  C   -0.000184   0.002612
     3  H   -0.000025  -0.000014
     4  H   -0.000007   0.000048
     5  C    0.000038   0.031450
     6  H   -0.000379   0.015011
     7  C    0.000188  -0.020800
     8  N   -0.000039   0.000002
     9  H   -0.000001   0.000000
    10  H    0.000009   0.000000
    11  N    0.008700  -0.134425
    12  H   -0.001574   0.003176
    13  O    0.001345  -0.000014
    14  O   -0.000001   0.000034
    15  N    0.000011  -0.021788
    16  H   -0.000138   0.043864
    17  C    0.000001   0.000577
    18  H    0.000000   0.000119
    19  H    0.000000  -0.000029
    20  H    0.000001  -0.000077
    21  C   -0.051520   0.656033
    22  C    0.403728  -0.056126
    23  H   -0.025235   0.003487
    24  H   -0.023817   0.000164
    25  H    0.575154   0.003156
    26  O    0.003156   7.893810
 Mulliken atomic charges:
              1
     1  C    0.288993
     2  C   -0.362304
     3  H    0.194312
     4  H    0.166671
     5  C   -0.137479
     6  H    0.202630
     7  C    0.320425
     8  N   -0.179403
     9  H    0.145220
    10  H    0.136866
    11  N   -0.209980
    12  H    0.178485
    13  O   -0.394329
    14  O   -0.389655
    15  N   -0.219620
    16  H    0.193678
    17  C   -0.182055
    18  H    0.092697
    19  H    0.095043
    20  H    0.125124
    21  C    0.321414
    22  C   -0.307134
    23  H    0.113777
    24  H    0.116172
    25  H    0.110338
    26  O   -0.419888
 Sum of Mulliken atomic charges =   0.00000
 Mulliken charges with hydrogens summed into heavy atoms:
              1
     1  C    0.288993
     2  C   -0.001321
     5  C    0.065152
     7  C    0.320425
     8  N    0.102682
    11  N   -0.031495
    13  O   -0.394329
    14  O   -0.389655
    15  N   -0.025942
    17  C    0.130811
    21  C    0.321414
    22  C    0.033153
    26  O   -0.419888
 Sum of Mulliken charges with hydrogens summed into heavy atoms =   0.00000
 Electronic spatial extent (au):  <R**2>=           2787.1793
 Charge=              0.0000 electrons
 Dipole moment (field-independent basis, Debye):
    X=             -1.9384    Y=             -0.1627    Z=              1.8404  Tot=              2.6779
 Quadrupole moment (field-independent basis, Debye-Ang):
   XX=            -68.8269   YY=            -77.4143   ZZ=            -77.5602
   XY=              7.2781   XZ=             -8.2971   YZ=            -10.4831
 Traceless Quadrupole moment (field-independent basis, Debye-Ang):
   XX=              5.7736   YY=             -2.8139   ZZ=             -2.9597
   XY=              7.2781   XZ=             -8.2971   YZ=            -10.4831
 Octapole moment (field-independent basis, Debye-Ang**2):
  XXX=             -2.2097  YYY=             23.7317  ZZZ=              2.5757  XYY=            -29.1070
  XXY=            -26.7692  XXZ=             34.6036  XZZ=            -11.8352  YZZ=             -7.1202
  YYZ=              3.1199  XYZ=             -1.8847
 Hexadecapole moment (field-independent basis, Debye-Ang**3):
 XXXX=          -1771.3804 YYYY=          -1235.5510 ZZZZ=           -251.0716 XXXY=             59.5254
 XXXZ=           -125.5930 YYYX=             33.1571 YYYZ=            -51.7037 ZZZX=            -12.5294
 ZZZY=            -11.7759 XXYY=           -539.2052 XXZZ=           -357.8052 YYZZ=           -252.2627
 XXYZ=            -36.7365 YYXZ=            -22.6219 ZZXY=             16.4840
 N-N= 8.486037054747D+02 E-N=-3.250256815023D+03  KE= 6.598168218037D+02
 Calculating spin-rotation constants.
 Leave Link  601 at Sun Mar 10 18:22:49 2013, MaxMem= 2147483648 cpu:      34.0
 (Enter C:\G09W\l9999.exe)

 Test job not archived.
 1|1|UNPC-IMOEN|SP|RM06|Gen|C7H13N3O3|ZENAWI|10-Mar-2013|0||#P Geom=All
 Check Guess=TCheck SCRF=Check GenChk RM06/ChkBas NMR=ReadFC IOp(3/6=22
 )||J-coupling calculation 1||0,1|C,0,-2.0035674511,0.3680965412,1.6360
 693718|C,0,-1.2413315582,1.4800061509,2.30761097|H,0,-1.5770242916,1.5
 428947115,3.3441635842|H,0,-1.4338946469,2.453030361,1.8566778969|C,0,
 0.2594312944,1.2292632676,2.3008460265|H,0,0.6502374117,1.262416979,1.
 2756172853|C,0,0.9557239172,2.3442805684,3.1033811588|N,0,-2.538405696
 ,0.6603429069,0.4283355605|H,0,-2.4795696747,1.5765564477,0.0256928858
 |H,0,-3.0542588402,-0.0557352053,-0.0530826495|N,0,0.542155454,-0.0934
 368981,2.8372982694|H,0,-0.2724415617,-0.6170076124,3.1336365219|O,0,-
 2.1116687048,-0.7322917404,2.1436298791|O,0,0.3187234113,3.1812495933,
 3.7096176818|N,0,2.299244335,2.2951073339,3.0409916795|H,0,2.711194427
 6,1.5225968588,2.5269347922|C,0,3.135589528,3.2261898897,3.7537461913|
 H,0,3.7410555197,2.7211867879,4.5083470869|H,0,3.8040949113,3.75489456
 28,3.0728586751|H,0,2.4932510756,3.950908943,4.2484791693|C,0,1.646059
 2588,-0.7933114756,2.4847140617|C,0,1.6625756235,-2.232015604,2.910867
 9022|H,0,2.0458287411,-2.8325162783,2.0885216064|H,0,2.3545993629,-2.3
 439486547,3.7456597449|H,0,0.6844636937,-2.6035439672,3.2117278355|O,0
 ,2.5823235594,-0.2923416977,1.8826890226||Version=EM64W-G09RevC.01|Sta
 te=1-A|HF=-664.385586|RMSD=3.197e-009|Dipole=-0.4367686,-0.146357,-0.9
 475216|Quadrupole=0.9849636,-3.5891356,2.604172,-0.8026919,10.2346487,
 -5.117737|PG=C01 [X(C7H13N3O3)]||@


 THE 2ND LAW OF THERMODYNAMICS HAS THE SAME
 DEGREE OF TRUTH AS THE STATEMENT THAT IF YOU THROW
 A TUMBLERFULL OF WATER INTO THE SEA, YOU CANNOT GET
 THE SAME TUMBLERFULL OF WATER OUT AGAIN.
          - J.C. MAXWELL, LETTER TO LORD RAYLEIGH, DECEMBER 6,1870
 Job cpu time:  0 days 15 hours 40 minutes 58.0 seconds.
 File lengths (MBytes):  RWF=   1570 Int=      0 D2E=      0 Chk=     43 Scr=      1
 Normal termination of Gaussian 09 at Sun Mar 10 18:22:50 2013.
