 Entering Link 1 = C:\G09W\l1.exe PID=      3048.
  
 Copyright (c) 1988,1990,1992,1993,1995,1998,2003,2009,2011,
            Gaussian, Inc.  All Rights Reserved.
  
 This is part of the Gaussian(R) 09 program.  It is based on
 the Gaussian(R) 03 system (copyright 2003, Gaussian, Inc.),
 the Gaussian(R) 98 system (copyright 1998, Gaussian, Inc.),
 the Gaussian(R) 94 system (copyright 1995, Gaussian, Inc.),
 the Gaussian 92(TM) system (copyright 1992, Gaussian, Inc.),
 the Gaussian 90(TM) system (copyright 1990, Gaussian, Inc.),
 the Gaussian 88(TM) system (copyright 1988, Gaussian, Inc.),
 the Gaussian 86(TM) system (copyright 1986, Carnegie Mellon
 University), and the Gaussian 82(TM) system (copyright 1983,
 Carnegie Mellon University). Gaussian is a federally registered
 trademark of Gaussian, Inc.
  
 This software contains proprietary and confidential information,
 including trade secrets, belonging to Gaussian, Inc.
  
 This software is provided under written license and may be
 used, copied, transmitted, or stored only in accord with that
 written license.
  
 The following legend is applicable only to US Government
 contracts under FAR:
  
                    RESTRICTED RIGHTS LEGEND
  
 Use, reproduction and disclosure by the US Government is
 subject to restrictions as set forth in subparagraphs (a)
 and (c) of the Commercial Computer Software - Restricted
 Rights clause in FAR 52.227-19.
  
 Gaussian, Inc.
 340 Quinnipiac St., Bldg. 40, Wallingford CT 06492
  
  
 ---------------------------------------------------------------
 Warning -- This program may not be used in any manner that
 competes with the business of Gaussian, Inc. or will provide
 assistance to any competitor of Gaussian, Inc.  The licensee
 of this program is prohibited from giving any competitor of
 Gaussian, Inc. access to this program.  By using this program,
 the user acknowledges that Gaussian, Inc. is engaged in the
 business of creating and licensing software in the field of
 computational chemistry and represents and warrants to the
 licensee that it is not a competitor of Gaussian, Inc. and that
 it will not use this program in any manner prohibited above.
 ---------------------------------------------------------------
  

 Cite this work as:
 Gaussian 09, Revision C.01,
 M. J. Frisch, G. W. Trucks, H. B. Schlegel, G. E. Scuseria, 
 M. A. Robb, J. R. Cheeseman, G. Scalmani, V. Barone, B. Mennucci, 
 G. A. Petersson, H. Nakatsuji, M. Caricato, X. Li, H. P. Hratchian, 
 A. F. Izmaylov, J. Bloino, G. Zheng, J. L. Sonnenberg, M. Hada, 
 M. Ehara, K. Toyota, R. Fukuda, J. Hasegawa, M. Ishida, T. Nakajima, 
 Y. Honda, O. Kitao, H. Nakai, T. Vreven, J. A. Montgomery, Jr., 
 J. E. Peralta, F. Ogliaro, M. Bearpark, J. J. Heyd, E. Brothers, 
 K. N. Kudin, V. N. Staroverov, T. Keith, R. Kobayashi, J. Normand, 
 K. Raghavachari, A. Rendell, J. C. Burant, S. S. Iyengar, J. Tomasi, 
 M. Cossi, N. Rega, J. M. Millam, M. Klene, J. E. Knox, J. B. Cross, 
 V. Bakken, C. Adamo, J. Jaramillo, R. Gomperts, R. E. Stratmann, 
 O. Yazyev, A. J. Austin, R. Cammi, C. Pomelli, J. W. Ochterski, 
 R. L. Martin, K. Morokuma, V. G. Zakrzewski, G. A. Voth, 
 P. Salvador, J. J. Dannenberg, S. Dapprich, A. D. Daniels, 
 O. Farkas, J. B. Foresman, J. V. Ortiz, J. Cioslowski, 
 and D. J. Fox, Gaussian, Inc., Wallingford CT, 2010.
 
 ******************************************
 Gaussian 09:  EM64W-G09RevC.01 23-Sep-2011
                10-Mar-2013 
 ******************************************
 %Chk=aspartic acid.chk
 %Mem=32GB
 %NProcShared=12
 Will use up to   12 processors via shared memory.
 ------------------------------------------------------------
 #p opt=tight m06/cc-pvtz scf=tight integral=(grid=ultrafine)
 ------------------------------------------------------------
 1/7=10,14=-1,18=20,19=15,26=3,38=1/1,3;
 2/9=110,12=2,17=6,18=5,40=1/2;
 3/5=16,6=1,11=2,16=1,25=1,30=1,71=1,74=-54,75=-5/1,2,3;
 4//1;
 5/5=2,32=2,38=5/2;
 6/7=2,8=2,9=2,10=2,28=1/1;
 7//1,2,3,16;
 1/7=10,14=-1,18=20,19=15/3(2);
 2/9=110/2;
 99//99;
 2/9=110/2;
 3/5=16,6=1,11=2,16=1,25=1,30=1,71=1,74=-54,75=-5/1,2,3;
 4/5=5,16=3/1;
 5/5=2,32=2,38=5/2;
 7//1,2,3,16;
 1/7=10,14=-1,18=20,19=15/3(-5);
 2/9=110/2;
 6/7=2,8=2,9=2,10=2,19=2,28=1/1;
 99/9=1/99;
 Leave Link    1 at Sun Mar 10 20:05:36 2013, MaxMem= 4294967296 cpu:       0.0
 (Enter C:\G09W\l101.exe)
 ---------------------
 Geometry optimisation
 ---------------------
 Charge =  0 Multiplicity = 1
 Symbolic Z-Matrix:
 C                    -4.2608    1.85073   4.00281 
 C                    -2.80616   2.33616   3.86147 
 H                    -2.1394    1.56255   4.18062 
 H                    -2.65983   3.20567   4.46764 
 C                    -2.52177   2.68355   2.38837 
 H                    -2.6681    1.81404   1.7822 
 C                    -1.06712   3.16897   2.24703 
 O                    -5.2687    2.34474   3.1168 
 H                    -6.11569   2.35328   3.56861 
 O                    -4.56251   1.01935   4.89799 
 O                    -0.70386   4.23821   2.80231 
 N                    -3.43778   3.74636   1.94991 
 H                    -3.30102   4.55899   2.51642 
 C                    -3.16632   4.07797   0.54376 
 C                    -2.94071   5.54351   0.12797 
 H                    -1.89902   5.77777   0.19789 
 H                    -3.27078   5.68306  -0.88024 
 H                    -3.49559   6.18795   0.77735 
 C                     0.89935   3.28334   0.87506 
 H                     1.41389   3.80336   1.65591 
 H                     1.60117   2.71145   0.30471 
 H                     0.41255   3.99035   0.23626 
 N                    -0.10294   2.3833    1.46346 
 H                     0.35201   1.72254   2.06047 
 O                    -3.11828   3.16428  -0.3202 
 
 NAtoms=     25 NQM=        0 NQMF=       0 NMMI=     25 NMMIF=      0
                NMic=       0 NMicF=      0.
                    Isotopes and Nuclear Properties:
 (Nuclear quadrupole moments (NQMom) in fm**2, nuclear magnetic moments (NMagM)
  in nuclear magnetons)

  Atom         1           2           3           4           5           6           7           8           9          10
 IAtWgt=          12          12           1           1          12           1          12          16           1          16
 AtmWgt=  12.0000000  12.0000000   1.0078250   1.0078250  12.0000000   1.0078250  12.0000000  15.9949146   1.0078250  15.9949146
 NucSpn=           0           0           1           1           0           1           0           0           1           0
 AtZEff=   0.0000000   0.0000000   0.0000000   0.0000000   0.0000000   0.0000000   0.0000000   0.0000000   0.0000000   0.0000000
 NQMom=    0.0000000   0.0000000   0.0000000   0.0000000   0.0000000   0.0000000   0.0000000   0.0000000   0.0000000   0.0000000
 NMagM=    0.0000000   0.0000000   2.7928460   2.7928460   0.0000000   2.7928460   0.0000000   0.0000000   2.7928460   0.0000000

  Atom        11          12          13          14          15          16          17          18          19          20
 IAtWgt=          16          14           1          12          12           1           1           1          12           1
 AtmWgt=  15.9949146  14.0030740   1.0078250  12.0000000  12.0000000   1.0078250   1.0078250   1.0078250  12.0000000   1.0078250
 NucSpn=           0           2           1           0           0           1           1           1           0           1
 AtZEff=   0.0000000   0.0000000   0.0000000   0.0000000   0.0000000   0.0000000   0.0000000   0.0000000   0.0000000   0.0000000
 NQMom=    0.0000000   2.0440000   0.0000000   0.0000000   0.0000000   0.0000000   0.0000000   0.0000000   0.0000000   0.0000000
 NMagM=    0.0000000   0.4037610   2.7928460   0.0000000   0.0000000   2.7928460   2.7928460   2.7928460   0.0000000   2.7928460

  Atom        21          22          23          24          25
 IAtWgt=           1           1          14           1          16
 AtmWgt=   1.0078250   1.0078250  14.0030740   1.0078250  15.9949146
 NucSpn=           1           1           2           1           0
 AtZEff=   0.0000000   0.0000000   0.0000000   0.0000000   0.0000000
 NQMom=    0.0000000   0.0000000   2.0440000   0.0000000   0.0000000
 NMagM=    2.7928460   2.7928460   0.4037610   2.7928460   0.0000000
 Leave Link  101 at Sun Mar 10 20:05:37 2013, MaxMem= 4294967296 cpu:       1.0
 (Enter C:\G09W\l103.exe)

 GradGradGradGradGradGradGradGradGradGradGradGradGradGradGradGradGradGrad
 Berny optimization.
 Initialization pass.
                           ----------------------------
                           !    Initial Parameters    !
                           ! (Angstroms and Degrees)  !
 --------------------------                            --------------------------
 ! Name  Definition              Value          Derivative Info.                !
 --------------------------------------------------------------------------------
 ! R1    R(1,2)                  1.54           estimate D2E/DX2                !
 ! R2    R(1,8)                  1.43           estimate D2E/DX2                !
 ! R3    R(1,10)                 1.2584         estimate D2E/DX2                !
 ! R4    R(2,3)                  1.07           estimate D2E/DX2                !
 ! R5    R(2,4)                  1.07           estimate D2E/DX2                !
 ! R6    R(2,5)                  1.54           estimate D2E/DX2                !
 ! R7    R(5,6)                  1.07           estimate D2E/DX2                !
 ! R8    R(5,7)                  1.54           estimate D2E/DX2                !
 ! R9    R(5,12)                 1.47           estimate D2E/DX2                !
 ! R10   R(7,11)                 1.2584         estimate D2E/DX2                !
 ! R11   R(7,23)                 1.47           estimate D2E/DX2                !
 ! R12   R(8,9)                  0.96           estimate D2E/DX2                !
 ! R13   R(12,13)                1.0            estimate D2E/DX2                !
 ! R14   R(12,14)                1.47           estimate D2E/DX2                !
 ! R15   R(14,15)                1.54           estimate D2E/DX2                !
 ! R16   R(14,25)                1.2584         estimate D2E/DX2                !
 ! R17   R(15,16)                1.07           estimate D2E/DX2                !
 ! R18   R(15,17)                1.07           estimate D2E/DX2                !
 ! R19   R(15,18)                1.07           estimate D2E/DX2                !
 ! R20   R(19,20)                1.07           estimate D2E/DX2                !
 ! R21   R(19,21)                1.07           estimate D2E/DX2                !
 ! R22   R(19,22)                1.07           estimate D2E/DX2                !
 ! R23   R(19,23)                1.47           estimate D2E/DX2                !
 ! R24   R(23,24)                1.0            estimate D2E/DX2                !
 ! A1    A(2,1,8)              120.0            estimate D2E/DX2                !
 ! A2    A(2,1,10)             120.0            estimate D2E/DX2                !
 ! A3    A(8,1,10)             120.0            estimate D2E/DX2                !
 ! A4    A(1,2,3)              109.4712         estimate D2E/DX2                !
 ! A5    A(1,2,4)              109.4712         estimate D2E/DX2                !
 ! A6    A(1,2,5)              109.4712         estimate D2E/DX2                !
 ! A7    A(3,2,4)              109.4712         estimate D2E/DX2                !
 ! A8    A(3,2,5)              109.4712         estimate D2E/DX2                !
 ! A9    A(4,2,5)              109.4712         estimate D2E/DX2                !
 ! A10   A(2,5,6)              109.4712         estimate D2E/DX2                !
 ! A11   A(2,5,7)              109.4712         estimate D2E/DX2                !
 ! A12   A(2,5,12)             109.4712         estimate D2E/DX2                !
 ! A13   A(6,5,7)              109.4712         estimate D2E/DX2                !
 ! A14   A(6,5,12)             109.4712         estimate D2E/DX2                !
 ! A15   A(7,5,12)             109.4712         estimate D2E/DX2                !
 ! A16   A(5,7,11)             120.0            estimate D2E/DX2                !
 ! A17   A(5,7,23)             120.0            estimate D2E/DX2                !
 ! A18   A(11,7,23)            120.0            estimate D2E/DX2                !
 ! A19   A(1,8,9)              109.4712         estimate D2E/DX2                !
 ! A20   A(5,12,13)            109.4712         estimate D2E/DX2                !
 ! A21   A(5,12,14)            109.4712         estimate D2E/DX2                !
 ! A22   A(13,12,14)           109.4712         estimate D2E/DX2                !
 ! A23   A(12,14,15)           120.0            estimate D2E/DX2                !
 ! A24   A(12,14,25)           120.0            estimate D2E/DX2                !
 ! A25   A(15,14,25)           120.0            estimate D2E/DX2                !
 ! A26   A(14,15,16)           109.4712         estimate D2E/DX2                !
 ! A27   A(14,15,17)           109.4712         estimate D2E/DX2                !
 ! A28   A(14,15,18)           109.4712         estimate D2E/DX2                !
 ! A29   A(16,15,17)           109.4712         estimate D2E/DX2                !
 ! A30   A(16,15,18)           109.4712         estimate D2E/DX2                !
 ! A31   A(17,15,18)           109.4712         estimate D2E/DX2                !
 ! A32   A(20,19,21)           109.4712         estimate D2E/DX2                !
 ! A33   A(20,19,22)           109.4712         estimate D2E/DX2                !
 ! A34   A(20,19,23)           109.4712         estimate D2E/DX2                !
 ! A35   A(21,19,22)           109.4712         estimate D2E/DX2                !
 ! A36   A(21,19,23)           109.4712         estimate D2E/DX2                !
 ! A37   A(22,19,23)           109.4712         estimate D2E/DX2                !
 ! A38   A(7,23,19)            109.4712         estimate D2E/DX2                !
 ! A39   A(7,23,24)            109.4712         estimate D2E/DX2                !
 ! A40   A(19,23,24)           109.4712         estimate D2E/DX2                !
 ! D1    D(8,1,2,3)           -150.0            estimate D2E/DX2                !
 ! D2    D(8,1,2,4)             90.0            estimate D2E/DX2                !
 ! D3    D(8,1,2,5)            -30.0            estimate D2E/DX2                !
 ! D4    D(10,1,2,3)            30.0            estimate D2E/DX2                !
 ! D5    D(10,1,2,4)           -90.0            estimate D2E/DX2                !
 ! D6    D(10,1,2,5)           150.0            estimate D2E/DX2                !
 ! D7    D(2,1,8,9)           -150.0            estimate D2E/DX2                !
 ! D8    D(10,1,8,9)            30.0            estimate D2E/DX2                !
 ! D9    D(1,2,5,6)            -60.0            estimate D2E/DX2                !
 ! D10   D(1,2,5,7)            180.0            estimate D2E/DX2                !
 ! D11   D(1,2,5,12)            60.0            estimate D2E/DX2                !
 ! D12   D(3,2,5,6)             60.0            estimate D2E/DX2                !
 ! D13   D(3,2,5,7)            -60.0            estimate D2E/DX2                !
 ! D14   D(3,2,5,12)          -180.0            estimate D2E/DX2                !
 ! D15   D(4,2,5,6)            180.0            estimate D2E/DX2                !
 ! D16   D(4,2,5,7)             60.0            estimate D2E/DX2                !
 ! D17   D(4,2,5,12)           -60.0            estimate D2E/DX2                !
 ! D18   D(2,5,7,11)           -65.1            estimate D2E/DX2                !
 ! D19   D(2,5,7,23)           114.9            estimate D2E/DX2                !
 ! D20   D(6,5,7,11)           174.9            estimate D2E/DX2                !
 ! D21   D(6,5,7,23)            -5.1            estimate D2E/DX2                !
 ! D22   D(12,5,7,11)           54.9            estimate D2E/DX2                !
 ! D23   D(12,5,7,23)         -125.1            estimate D2E/DX2                !
 ! D24   D(2,5,12,13)           60.0            estimate D2E/DX2                !
 ! D25   D(2,5,12,14)          180.0            estimate D2E/DX2                !
 ! D26   D(6,5,12,13)          180.0            estimate D2E/DX2                !
 ! D27   D(6,5,12,14)          -60.0            estimate D2E/DX2                !
 ! D28   D(7,5,12,13)          -60.0            estimate D2E/DX2                !
 ! D29   D(7,5,12,14)           60.0            estimate D2E/DX2                !
 ! D30   D(5,7,23,19)          150.0            estimate D2E/DX2                !
 ! D31   D(5,7,23,24)          -90.0            estimate D2E/DX2                !
 ! D32   D(11,7,23,19)         -30.0            estimate D2E/DX2                !
 ! D33   D(11,7,23,24)          90.0            estimate D2E/DX2                !
 ! D34   D(5,12,14,15)        -128.71           estimate D2E/DX2                !
 ! D35   D(5,12,14,25)          51.29           estimate D2E/DX2                !
 ! D36   D(13,12,14,15)         -8.71           estimate D2E/DX2                !
 ! D37   D(13,12,14,25)        171.29           estimate D2E/DX2                !
 ! D38   D(12,14,15,16)         90.0            estimate D2E/DX2                !
 ! D39   D(12,14,15,17)       -150.0            estimate D2E/DX2                !
 ! D40   D(12,14,15,18)        -30.0            estimate D2E/DX2                !
 ! D41   D(25,14,15,16)        -90.0            estimate D2E/DX2                !
 ! D42   D(25,14,15,17)         30.0            estimate D2E/DX2                !
 ! D43   D(25,14,15,18)        150.0            estimate D2E/DX2                !
 ! D44   D(20,19,23,7)          60.0            estimate D2E/DX2                !
 ! D45   D(20,19,23,24)        -60.0            estimate D2E/DX2                !
 ! D46   D(21,19,23,7)         180.0            estimate D2E/DX2                !
 ! D47   D(21,19,23,24)         60.0            estimate D2E/DX2                !
 ! D48   D(22,19,23,7)         -60.0            estimate D2E/DX2                !
 ! D49   D(22,19,23,24)        180.0            estimate D2E/DX2                !
 --------------------------------------------------------------------------------
 Trust Radius=3.00D-01 FncErr=1.00D-07 GrdErr=1.00D-06
 Number of steps in this run=    123 maximum allowed number of steps=    150.
 GradGradGradGradGradGradGradGradGradGradGradGradGradGradGradGradGradGrad

 Leave Link  103 at Sun Mar 10 20:05:37 2013, MaxMem= 4294967296 cpu:       0.0
 (Enter C:\G09W\l202.exe)
                          Input orientation:                          
 ---------------------------------------------------------------------
 Center     Atomic      Atomic             Coordinates (Angstroms)
 Number     Number       Type             X           Y           Z
 ---------------------------------------------------------------------
      1          6           0       -4.260803    1.850734    4.002812
      2          6           0       -2.806159    2.336156    3.861472
      3          1           0       -2.139396    1.562547    4.180622
      4          1           0       -2.659825    3.205666    4.467639
      5          6           0       -2.521765    2.683552    2.388368
      6          1           0       -2.668099    1.814042    1.782201
      7          6           0       -1.067122    3.168973    2.247028
      8          8           0       -5.268698    2.344737    3.116805
      9          1           0       -6.115692    2.353280    3.568609
     10          8           0       -4.562507    1.019353    4.897994
     11          8           0       -0.703859    4.238215    2.802306
     12          7           0       -3.437785    3.746361    1.949910
     13          1           0       -3.301025    4.558987    2.516421
     14          6           0       -3.166318    4.077966    0.543765
     15          6           0       -2.940711    5.543507    0.127965
     16          1           0       -1.899015    5.777773    0.197886
     17          1           0       -3.270780    5.683061   -0.880241
     18          1           0       -3.495586    6.187955    0.777351
     19          6           0        0.899351    3.283342    0.875056
     20          1           0        1.413894    3.803356    1.655909
     21          1           0        1.601167    2.711455    0.304707
     22          1           0        0.412552    3.990351    0.236256
     23          7           0       -0.102943    2.383296    1.463464
     24          1           0        0.352009    1.722541    2.060474
     25          8           0       -3.118281    3.164281   -0.320205
 ---------------------------------------------------------------------
                    Distance matrix (angstroms):
                    1          2          3          4          5
     1  C    0.000000
     2  C    1.540000   0.000000
     3  H    2.148263   1.070000   0.000000
     4  H    2.148263   1.070000   1.747303   0.000000
     5  C    2.514809   1.540000   2.148263   2.148263   0.000000
     6  H    2.732978   2.148263   2.468846   3.024610   1.070000
     7  C    3.875582   2.514809   2.732978   2.732978   1.540000
     8  O    1.430000   2.572683   3.396477   3.061399   2.862001
     9  H    1.970203   3.322510   4.100091   3.671217   3.797151
    10  O    1.258400   2.427572   2.584792   2.930080   3.637638
    11  O    4.448947   3.026438   3.334625   2.768627   2.427572
    12  N    2.912931   2.457987   3.380966   2.690081   1.470000
    13  H    3.234991   2.644813   3.619061   2.459648   2.034920
    14  C    4.257167   3.764412   4.539673   4.051448   2.400500
    15  C    5.513044   4.923848   5.737088   4.937324   3.669371
    16  H    5.956268   5.107788   5.804145   5.042356   3.841905
    17  H    6.285784   5.822498   6.623518   5.925417   4.499098
    18  H    5.458996   4.982316   5.900500   4.817756   3.978007
    19  C    6.201807   4.852489   4.808522   5.057709   3.788654
    20  H    6.443824   4.982573   4.901151   4.985805   4.156906
    21  H    6.984234   5.675910   5.507679   5.977484   4.619632
    22  H    6.372217   5.122368   5.288166   5.287707   3.866462
    23  N    4.900990   3.613868   3.493382   4.029765   2.606971
    24  H    5.006710   3.687023   3.275321   4.131011   3.047890
    25  O    4.660390   4.274299   4.876598   4.809921   2.814835
                    6          7          8          9         10
     6  H    0.000000
     7  C    2.148263   0.000000
     8  O    2.970845   4.369110   0.000000
     9  H    3.920195   5.282045   0.960000   0.000000
    10  O    3.732088   4.885306   2.329803   2.441108   0.000000
    11  O    3.282601   1.258400   4.951961   5.781708   5.444460
    12  N    2.086720   2.457987   2.584267   3.425208   4.170464
    13  H    2.911082   2.644813   3.022433   3.727546   4.448847
    14  C    2.628174   2.852017   3.747615   4.563226   5.501251
    15  C    4.088977   3.693126   4.958307   5.665340   6.771364
    16  H    4.337362   3.420068   5.626773   6.392909   7.199150
    17  H    4.735095   4.577833   5.577854   6.242854   7.537024
    18  H    4.563505   4.143868   4.836041   5.418561   6.695705
    19  C    3.963389   2.400500   6.629573   7.571728   7.151333
    20  H    4.542685   2.628174   6.994199   7.902899   7.347051
    21  H    4.605972   3.331921   7.432188   8.386374   7.870983
    22  H    4.076356   2.628174   6.578921   7.510163   7.437059
    23  N    2.646822   1.470000   5.424024   6.370690   5.791722
    24  H    3.034280   2.034920   5.752852   6.671091   5.718256
    25  O    2.538882   3.286025   4.136300   4.976451   5.823753
                   11         12         13         14         15
    11  O    0.000000
    12  N    2.905659   0.000000
    13  H    2.632470   1.000000   0.000000
    14  C    3.345205   1.470000   2.034920   0.000000
    15  C    3.722821   2.606971   2.608414   1.540000   0.000000
    16  H    3.252943   3.092577   2.970971   2.148263   1.070000
    17  H    4.715699   3.433431   3.577956   2.148263   1.070000
    18  H    3.961776   2.709173   2.390764   2.148263   1.070000
    19  C    2.682602   4.492265   4.686630   4.155821   4.518027
    20  H    2.447081   4.860912   4.852001   4.721294   4.932071
    21  H    3.725875   5.400811   5.686523   4.965221   5.355411
    22  H    2.809346   4.221521   4.394673   3.593126   3.697080
    23  N    2.365231   3.635346   4.008749   3.619671   4.452350
    24  H    2.827328   4.297744   4.647361   4.497450   5.401516
    25  O    4.090580   2.365231   3.166235   1.258400   2.427572
                   16         17         18         19         20
    16  H    0.000000
    17  H    1.747303   0.000000
    18  H    1.747303   1.747303   0.000000
    19  C    3.809409   5.121494   5.268946   0.000000
    20  H    4.123047   5.649027   5.528215   1.070000   0.000000
    21  H    4.654567   5.828414   6.187596   1.070000   1.747303
    22  H    2.922275   4.204612   4.516170   1.070000   1.747303
    23  N    4.043517   5.139707   5.143559   1.470000   2.086720
    24  H    4.998124   6.120304   6.032438   2.034920   2.370879
    25  O    2.930080   2.584792   3.238764   4.193351   4.985384
                   21         22         23         24         25
    21  H    0.000000
    22  H    1.747303   0.000000
    23  N    2.086720   2.086720   0.000000
    24  H    2.370879   2.911082   1.000000   0.000000
    25  O    4.782130   3.668627   3.589384   4.448501   0.000000
 Stoichiometry    C7H12N2O4
 Framework group  C1[X(C7H12N2O4)]
 Deg. of freedom    69
 Full point group                 C1      NOp   1
 Largest Abelian subgroup         C1      NOp   1
 Largest concise Abelian subgroup C1      NOp   1
                         Standard orientation:                         
 ---------------------------------------------------------------------
 Center     Atomic      Atomic             Coordinates (Angstroms)
 Number     Number       Type             X           Y           Z
 ---------------------------------------------------------------------
      1          6           0       -2.824810   -0.394793   -0.025118
      2          6           0       -1.518825   -1.105137    0.376647
      3          1           0       -1.516960   -2.099061   -0.019599
      4          1           0       -1.448904   -1.146386    1.443563
      5          6           0       -0.316160   -0.325607   -0.186850
      6          1           0       -0.386081   -0.284358   -1.253766
      7          6           0        0.989825   -1.035952    0.214915
      8          8           0       -2.840230    1.023342   -0.208302
      9          1           0       -3.710680    1.364679    0.009425
     10          8           0       -3.878415   -1.062298   -0.192215
     11          8           0        1.319415   -1.108402    1.427224
     12          7           0       -0.318723    1.039877    0.357527
     13          1           0       -0.253375    1.001327    1.354644
     14          6           0        0.829276    1.783975   -0.180357
     15          6           0        1.780875    2.527696    0.775120
     16          1           0        2.572949    1.872147    1.071387
     17          1           0        2.191573    3.380893    0.276841
     18          1           0        1.239280    2.846790    1.641003
     19          6           0        3.251347   -1.587672   -0.371190
     20          1           0        3.352092   -2.141432    0.538810
     21          1           0        3.878506   -2.019619   -1.122850
     22          1           0        3.542428   -0.571609   -0.204490
     23          7           0        1.851435   -1.629374   -0.817740
     24          1           0        1.579397   -2.578966   -0.973534
     25          8           0        1.034433    1.813235   -1.421576
 ---------------------------------------------------------------------
 Rotational constants (GHZ):      1.0440098      0.5336285      0.4110484
 Leave Link  202 at Sun Mar 10 20:05:37 2013, MaxMem= 4294967296 cpu:       0.0
 (Enter C:\G09W\l301.exe)
 Standard basis: CC-pVTZ (5D, 7F)
 Ernie: Thresh=  0.10000D-02 Tol=  0.10000D-05 Strict=F.
 Ernie:  39 primitive shells out of 434 were deleted.
 There are   558 symmetry adapted basis functions of A   symmetry.
 Integral buffers will be    131072 words long.
 Raffenetti 2 integral format.
 Two-electron integral symmetry is turned on.
   558 basis functions,   880 primitive gaussians,   635 cartesian basis functions
    50 alpha electrons       50 beta electrons
       nuclear repulsion energy       837.6419464896 Hartrees.
 IExCor= 4235 DFT=T Ex+Corr=M06 ExCW=0 ScaHFX=  0.270000
 ScaDFX=  1.000000  1.000000  1.000000  1.000000 ScalE2=  1.000000  1.000000
 IRadAn=      5 IRanWt=     -1 IRanGd=            0 ICorTp=0
 NAtoms=   25 NActive=   25 NUniq=   25 SFac= 1.00D+00 NAtFMM=   60 NAOKFM=F Big=F
 Leave Link  301 at Sun Mar 10 20:05:38 2013, MaxMem= 4294967296 cpu:       1.0
 (Enter C:\G09W\l302.exe)
 NPDir=0 NMtPBC=     1 NCelOv=     1 NCel=       1 NClECP=     1 NCelD=      1
         NCelK=      1 NCelE2=     1 NClLst=     1 CellRange=     0.0.
 One-electron integrals computed using PRISM.
 NBasis=   558 RedAO= T  NBF=   558
 NBsUse=   558 1.00D-06 NBFU=   558
 Precomputing XC quadrature grid using
 IXCGrd= 2 IRadAn=           5 IRanWt=          -1 IRanGd=           0 AccXCQ= 0.00D+00.
 NRdTot=    2096 NPtTot=      564558 NUsed=      579568 NTot=      579600
 NSgBfM=   634   634   635   635   635 NAtAll=    25    25.
 Leave Link  302 at Sun Mar 10 20:05:42 2013, MaxMem= 4294967296 cpu:       4.0
 (Enter C:\G09W\l303.exe)
 DipDrv:  MaxL=1.
 Leave Link  303 at Sun Mar 10 20:05:43 2013, MaxMem= 4294967296 cpu:       1.0
 (Enter C:\G09W\l401.exe)
 Harris functional with IExCor= 1009 diagonalized for initial guess.
 ExpMin= 1.03D-01 ExpMax= 1.53D+04 ExpMxC= 5.22D+02 IAcc=3 IRadAn=         5 AccDes= 0.00D+00
 HarFok:  IExCor= 1009 AccDes= 0.00D+00 IRadAn=         5 IDoV= 1
 ScaDFX=  1.000000  1.000000  1.000000  1.000000
 FoFCou: FMM=F IPFlag=           0 FMFlag=      100000 FMFlg1=           0
         NFxFlg=           0 DoJE=T BraDBF=F KetDBF=T FulRan=T
         Omega=  0.000000  0.000000  1.000000  0.000000  0.000000 ICntrl=     500 IOpCl=  0
         NMat0=    1 NMatS0=    1 NMatT0=    0 NMatD0=    1 NMtDS0=    0 NMtDT0=    0
         I1Cent=           4 NGrid=           0.
 Petite list used in FoFCou.
 Harris En= -683.995611588329    
 Initial guess orbital symmetries:
       Occupied  (A) (A) (A) (A) (A) (A) (A) (A) (A) (A) (A) (A)
                 (A) (A) (A) (A) (A) (A) (A) (A) (A) (A) (A) (A)
                 (A) (A) (A) (A) (A) (A) (A) (A) (A) (A) (A) (A)
                 (A) (A) (A) (A) (A) (A) (A) (A) (A) (A) (A) (A)
                 (A) (A)
       Virtual   (A) (A) (A) (A) (A) (A) (A) (A) (A) (A) (A) (A)
                 (A) (A) (A) (A) (A) (A) (A) (A) (A) (A) (A) (A)
                 (A) (A) (A) (A) (A) (A) (A) (A) (A) (A) (A) (A)
                 (A) (A) (A) (A) (A) (A) (A) (A) (A) (A) (A) (A)
                 (A) (A) (A) (A) (A) (A) (A) (A) (A) (A) (A) (A)
                 (A) (A) (A) (A) (A) (A) (A) (A) (A) (A) (A) (A)
                 (A) (A) (A) (A) (A) (A) (A) (A) (A) (A) (A) (A)
                 (A) (A) (A) (A) (A) (A) (A) (A) (A) (A) (A) (A)
                 (A) (A) (A) (A) (A) (A) (A) (A) (A) (A) (A) (A)
                 (A) (A) (A) (A) (A) (A) (A) (A) (A) (A) (A) (A)
                 (A) (A) (A) (A) (A) (A) (A) (A) (A) (A) (A) (A)
                 (A) (A) (A) (A) (A) (A) (A) (A) (A) (A) (A) (A)
                 (A) (A) (A) (A) (A) (A) (A) (A) (A) (A) (A) (A)
                 (A) (A) (A) (A) (A) (A) (A) (A) (A) (A) (A) (A)
                 (A) (A) (A) (A) (A) (A) (A) (A) (A) (A) (A) (A)
                 (A) (A) (A) (A) (A) (A) (A) (A) (A) (A) (A) (A)
                 (A) (A) (A) (A) (A) (A) (A) (A) (A) (A) (A) (A)
                 (A) (A) (A) (A) (A) (A) (A) (A) (A) (A) (A) (A)
                 (A) (A) (A) (A) (A) (A) (A) (A) (A) (A) (A) (A)
                 (A) (A) (A) (A) (A) (A) (A) (A) (A) (A) (A) (A)
                 (A) (A) (A) (A) (A) (A) (A) (A) (A) (A) (A) (A)
                 (A) (A) (A) (A) (A) (A) (A) (A) (A) (A) (A) (A)
                 (A) (A) (A) (A) (A) (A) (A) (A) (A) (A) (A) (A)
                 (A) (A) (A) (A) (A) (A) (A) (A) (A) (A) (A) (A)
                 (A) (A) (A) (A) (A) (A) (A) (A) (A) (A) (A) (A)
                 (A) (A) (A) (A) (A) (A) (A) (A) (A) (A) (A) (A)
                 (A) (A) (A) (A) (A) (A) (A) (A) (A) (A) (A) (A)
                 (A) (A) (A) (A) (A) (A) (A) (A) (A) (A) (A) (A)
                 (A) (A) (A) (A) (A) (A) (A) (A) (A) (A) (A) (A)
                 (A) (A) (A) (A) (A) (A) (A) (A) (A) (A) (A) (A)
                 (A) (A) (A) (A) (A) (A) (A) (A) (A) (A) (A) (A)
                 (A) (A) (A) (A) (A) (A) (A) (A) (A) (A) (A) (A)
                 (A) (A) (A) (A) (A) (A) (A) (A) (A) (A) (A) (A)
                 (A) (A) (A) (A) (A) (A) (A) (A) (A) (A) (A) (A)
                 (A) (A) (A) (A) (A) (A) (A) (A) (A) (A) (A) (A)
                 (A) (A) (A) (A) (A) (A) (A) (A) (A) (A) (A) (A)
                 (A) (A) (A) (A) (A) (A) (A) (A) (A) (A) (A) (A)
                 (A) (A) (A) (A) (A) (A) (A) (A) (A) (A) (A) (A)
                 (A) (A) (A) (A) (A) (A) (A) (A) (A) (A) (A) (A)
                 (A) (A) (A) (A) (A) (A) (A) (A) (A) (A) (A) (A)
                 (A) (A) (A) (A) (A) (A) (A) (A) (A) (A) (A) (A)
                 (A) (A) (A) (A) (A) (A) (A) (A) (A) (A) (A) (A)
                 (A) (A) (A) (A)
 The electronic state of the initial guess is 1-A.
 Leave Link  401 at Sun Mar 10 20:06:02 2013, MaxMem= 4294967296 cpu:      19.0
 (Enter C:\G09W\l502.exe)
 Closed shell SCF:
 Requested convergence on RMS density matrix=1.00D-08 within 128 cycles.
 Requested convergence on MAX density matrix=1.00D-06.
 Requested convergence on             energy=1.00D-06.
 No special actions if energy rises.
 Using DIIS extrapolation, IDIIS=  1040.
 Integral symmetry usage will be decided dynamically.
       579330 words used for storage of precomputed grid.
 IEnd=     1819391 IEndB=     1819391 NGot=  4294967296 MDV=  4293568406
 LenX=  4293568406 LenY=  4293164546
 Fock matrices will be formed incrementally for  20 cycles.
 Integral accuracy reduced to 1.0D-05 until final iterations.

 Cycle   1  Pass 0  IDiag  1:
 FoFCou: FMM=F IPFlag=           0 FMFlag=      100000 FMFlg1=           0
         NFxFlg=           0 DoJE=F BraDBF=F KetDBF=F FulRan=T
         Omega=  0.000000  0.000000  1.000000  0.000000  0.000000 ICntrl=       0 IOpCl=  0
         NMat0=    1 NMatS0=    1 NMatT0=    0 NMatD0=    1 NMtDS0=    0 NMtDT0=    0
         I1Cent=           0 NGrid=           0.
 Symmetry not used in FoFCou.
 E= -683.831938230081    
 DIIS: error= 1.81D-02 at cycle   1 NSaved=   1.
 NSaved= 1 IEnMin= 1 EnMin= -683.831938230081     IErMin= 1 ErrMin= 1.81D-02
 ErrMax= 1.81D-02 EMaxC= 1.00D-01 BMatC= 4.22D-01 BMatP= 4.22D-01
 IDIUse=3 WtCom= 8.19D-01 WtEn= 1.81D-01
 Coeff-Com:  0.100D+01
 Coeff-En:   0.100D+01
 Coeff:      0.100D+01
 Gap=     0.182 Goal=   None    Shift=    0.000
 GapD=    0.182 DampG=1.000 DampE=0.500 DampFc=0.5000 IDamp=-1.
 Damping current iteration by 5.00D-01
 RMSDP=2.34D-03 MaxDP=2.36D-01              OVMax= 2.19D-01

 Cycle   2  Pass 0  IDiag  1:
 RMSU=  8.26D-04    CP:  1.00D+00
 E= -683.904593334100     Delta-E=       -0.072655104019 Rises=F Damp=T
 DIIS: error= 7.44D-03 at cycle   2 NSaved=   2.
 NSaved= 2 IEnMin= 2 EnMin= -683.904593334100     IErMin= 2 ErrMin= 7.44D-03
 ErrMax= 7.44D-03 EMaxC= 1.00D-01 BMatC= 7.83D-02 BMatP= 4.22D-01
 IDIUse=3 WtCom= 9.26D-01 WtEn= 7.44D-02
 Coeff-Com:  0.253D+00 0.747D+00
 Coeff-En:   0.388D+00 0.612D+00
 Coeff:      0.263D+00 0.737D+00
 Gap=     0.228 Goal=   None    Shift=    0.000
 RMSDP=6.07D-04 MaxDP=3.58D-02 DE=-7.27D-02 OVMax= 1.51D-01

 Cycle   3  Pass 0  IDiag  1:
 RMSU=  3.90D-04    CP:  1.00D+00  7.85D-01
 E= -684.115969079988     Delta-E=       -0.211375745888 Rises=F Damp=F
 DIIS: error= 7.22D-03 at cycle   3 NSaved=   3.
 NSaved= 3 IEnMin= 3 EnMin= -684.115969079988     IErMin= 3 ErrMin= 7.22D-03
 ErrMax= 7.22D-03 EMaxC= 1.00D-01 BMatC= 5.87D-02 BMatP= 7.83D-02
 IDIUse=3 WtCom= 9.28D-01 WtEn= 7.22D-02
 Coeff-Com:  0.970D-01 0.463D+00 0.440D+00
 Coeff-En:   0.000D+00 0.000D+00 0.100D+01
 Coeff:      0.900D-01 0.429D+00 0.481D+00
 Gap=     0.231 Goal=   None    Shift=    0.000
 RMSDP=3.64D-04 MaxDP=1.44D-02 DE=-2.11D-01 OVMax= 6.17D-02

 Cycle   4  Pass 0  IDiag  1:
 RMSU=  2.09D-04    CP:  1.00D+00  8.57D-01  6.45D-01
 E= -684.159190324896     Delta-E=       -0.043221244908 Rises=F Damp=F
 DIIS: error= 1.99D-03 at cycle   4 NSaved=   4.
 NSaved= 4 IEnMin= 4 EnMin= -684.159190324896     IErMin= 4 ErrMin= 1.99D-03
 ErrMax= 1.99D-03 EMaxC= 1.00D-01 BMatC= 6.59D-03 BMatP= 5.87D-02
 IDIUse=3 WtCom= 9.80D-01 WtEn= 1.99D-02
 Coeff-Com:  0.191D-01 0.108D+00 0.270D+00 0.602D+00
 Coeff-En:   0.000D+00 0.000D+00 0.876D-01 0.912D+00
 Coeff:      0.187D-01 0.106D+00 0.267D+00 0.608D+00
 Gap=     0.221 Goal=   None    Shift=    0.000
 RMSDP=1.10D-04 MaxDP=5.15D-03 DE=-4.32D-02 OVMax= 2.08D-02

 Cycle   5  Pass 0  IDiag  1:
 RMSU=  4.97D-05    CP:  1.00D+00  8.25D-01  7.40D-01  8.16D-01
 E= -684.163570819532     Delta-E=       -0.004380494636 Rises=F Damp=F
 DIIS: error= 8.39D-04 at cycle   5 NSaved=   5.
 NSaved= 5 IEnMin= 5 EnMin= -684.163570819532     IErMin= 5 ErrMin= 8.39D-04
 ErrMax= 8.39D-04 EMaxC= 1.00D-01 BMatC= 6.78D-04 BMatP= 6.59D-03
 IDIUse=3 WtCom= 9.92D-01 WtEn= 8.39D-03
 Coeff-Com:  0.237D-02 0.120D-01 0.105D+00 0.349D+00 0.531D+00
 Coeff-En:   0.000D+00 0.000D+00 0.000D+00 0.295D-01 0.970D+00
 Coeff:      0.235D-02 0.119D-01 0.104D+00 0.346D+00 0.535D+00
 Gap=     0.221 Goal=   None    Shift=    0.000
 RMSDP=3.64D-05 MaxDP=2.44D-03 DE=-4.38D-03 OVMax= 6.89D-03

 Cycle   6  Pass 0  IDiag  1:
 RMSU=  1.43D-05    CP:  1.00D+00  8.36D-01  7.31D-01  8.34D-01  6.26D-01
 E= -684.164082862206     Delta-E=       -0.000512042674 Rises=F Damp=F
 DIIS: error= 2.05D-04 at cycle   6 NSaved=   6.
 NSaved= 6 IEnMin= 6 EnMin= -684.164082862206     IErMin= 6 ErrMin= 2.05D-04
 ErrMax= 2.05D-04 EMaxC= 1.00D-01 BMatC= 4.90D-05 BMatP= 6.78D-04
 IDIUse=3 WtCom= 9.98D-01 WtEn= 2.05D-03
 Coeff-Com:  0.344D-04-0.258D-02 0.306D-01 0.115D+00 0.273D+00 0.584D+00
 Coeff-En:   0.000D+00 0.000D+00 0.000D+00 0.000D+00 0.000D+00 0.100D+01
 Coeff:      0.344D-04-0.258D-02 0.305D-01 0.115D+00 0.273D+00 0.584D+00
 Gap=     0.221 Goal=   None    Shift=    0.000
 RMSDP=1.06D-05 MaxDP=5.39D-04 DE=-5.12D-04 OVMax= 2.20D-03

 Cycle   7  Pass 0  IDiag  1:
 RMSU=  5.83D-06    CP:  1.00D+00  8.37D-01  7.36D-01  8.37D-01  6.75D-01
                    CP:  7.51D-01
 E= -684.164109923956     Delta-E=       -0.000027061750 Rises=F Damp=F
 DIIS: error= 9.46D-05 at cycle   7 NSaved=   7.
 NSaved= 7 IEnMin= 7 EnMin= -684.164109923956     IErMin= 7 ErrMin= 9.46D-05
 ErrMax= 9.46D-05 EMaxC= 1.00D-01 BMatC= 1.33D-05 BMatP= 4.90D-05
 IDIUse=1 WtCom= 1.00D+00 WtEn= 0.00D+00
 Coeff-Com: -0.205D-03-0.361D-02 0.675D-02 0.303D-01 0.118D+00 0.391D+00
 Coeff-Com:  0.458D+00
 Coeff:     -0.205D-03-0.361D-02 0.675D-02 0.303D-01 0.118D+00 0.391D+00
 Coeff:      0.458D+00
 Gap=     0.221 Goal=   None    Shift=    0.000
 RMSDP=4.80D-06 MaxDP=3.77D-04 DE=-2.71D-05 OVMax= 7.67D-04

 Initial convergence to 1.0D-05 achieved.  Increase integral accuracy.
 Cycle   8  Pass 1  IDiag  1:
 E= -684.164098007815     Delta-E=        0.000011916140 Rises=F Damp=F
 DIIS: error= 4.95D-05 at cycle   1 NSaved=   1.
 NSaved= 1 IEnMin= 1 EnMin= -684.164098007815     IErMin= 1 ErrMin= 4.95D-05
 ErrMax= 4.95D-05 EMaxC= 1.00D-01 BMatC= 4.86D-06 BMatP= 4.86D-06
 IDIUse=1 WtCom= 1.00D+00 WtEn= 0.00D+00
 Coeff-Com:  0.100D+01
 Coeff:      0.100D+01
 Gap=     0.221 Goal=   None    Shift=    0.000
 RMSDP=4.80D-06 MaxDP=3.77D-04 DE= 1.19D-05 OVMax= 4.91D-04

 Cycle   9  Pass 1  IDiag  1:
 RMSU=  1.62D-05    CP:  1.00D+00
 E= -684.164099443869     Delta-E=       -0.000001436054 Rises=F Damp=F
 DIIS: error= 4.79D-05 at cycle   2 NSaved=   2.
 NSaved= 2 IEnMin= 2 EnMin= -684.164099443869     IErMin= 2 ErrMin= 4.79D-05
 ErrMax= 4.79D-05 EMaxC= 1.00D-01 BMatC= 2.35D-06 BMatP= 4.86D-06
 IDIUse=1 WtCom= 1.00D+00 WtEn= 0.00D+00
 Coeff-Com:  0.369D+00 0.631D+00
 Coeff:      0.369D+00 0.631D+00
 Gap=     0.221 Goal=   None    Shift=    0.000
 RMSDP=3.46D-06 MaxDP=3.02D-04 DE=-1.44D-06 OVMax= 7.19D-04

 Cycle  10  Pass 1  IDiag  1:
 RMSU=  2.43D-06    CP:  1.00D+00  1.01D+00
 E= -684.164099516714     Delta-E=       -0.000000072845 Rises=F Damp=F
 DIIS: error= 5.08D-05 at cycle   3 NSaved=   3.
 NSaved= 3 IEnMin= 3 EnMin= -684.164099516714     IErMin= 2 ErrMin= 4.79D-05
 ErrMax= 5.08D-05 EMaxC= 1.00D-01 BMatC= 2.31D-06 BMatP= 2.35D-06
 IDIUse=1 WtCom= 1.00D+00 WtEn= 0.00D+00
 Coeff-Com:  0.196D-01 0.493D+00 0.488D+00
 Coeff:      0.196D-01 0.493D+00 0.488D+00
 Gap=     0.221 Goal=   None    Shift=    0.000
 RMSDP=1.69D-06 MaxDP=1.24D-04 DE=-7.28D-08 OVMax= 4.07D-04

 Cycle  11  Pass 1  IDiag  1:
 RMSU=  5.79D-07    CP:  1.00D+00  1.02D+00  5.70D-01
 E= -684.164101134351     Delta-E=       -0.000001617637 Rises=F Damp=F
 DIIS: error= 7.35D-06 at cycle   4 NSaved=   4.
 NSaved= 4 IEnMin= 4 EnMin= -684.164101134351     IErMin= 4 ErrMin= 7.35D-06
 ErrMax= 7.35D-06 EMaxC= 1.00D-01 BMatC= 5.14D-08 BMatP= 2.31D-06
 IDIUse=1 WtCom= 1.00D+00 WtEn= 0.00D+00
 Coeff-Com: -0.275D-02 0.248D+00 0.268D+00 0.486D+00
 Coeff:     -0.275D-02 0.248D+00 0.268D+00 0.486D+00
 Gap=     0.221 Goal=   None    Shift=    0.000
 RMSDP=3.18D-07 MaxDP=1.50D-05 DE=-1.62D-06 OVMax= 5.00D-05

 Cycle  12  Pass 1  IDiag  1:
 RMSU=  1.92D-07    CP:  1.00D+00  1.02D+00  5.87D-01  8.25D-01
 E= -684.164101173655     Delta-E=       -0.000000039304 Rises=F Damp=F
 DIIS: error= 1.69D-06 at cycle   5 NSaved=   5.
 NSaved= 5 IEnMin= 5 EnMin= -684.164101173655     IErMin= 5 ErrMin= 1.69D-06
 ErrMax= 1.69D-06 EMaxC= 1.00D-01 BMatC= 2.45D-09 BMatP= 5.14D-08
 IDIUse=1 WtCom= 1.00D+00 WtEn= 0.00D+00
 Coeff-Com: -0.268D-02 0.727D-01 0.820D-01 0.225D+00 0.623D+00
 Coeff:     -0.268D-02 0.727D-01 0.820D-01 0.225D+00 0.623D+00
 Gap=     0.221 Goal=   None    Shift=    0.000
 RMSDP=9.60D-08 MaxDP=4.57D-06 DE=-3.93D-08 OVMax= 1.23D-05

 Cycle  13  Pass 1  IDiag  1:
 RMSU=  5.95D-08    CP:  1.00D+00  1.02D+00  5.85D-01  8.73D-01  9.98D-01
 E= -684.164101174907     Delta-E=       -0.000000001253 Rises=F Damp=F
 DIIS: error= 7.29D-07 at cycle   6 NSaved=   6.
 NSaved= 6 IEnMin= 6 EnMin= -684.164101174907     IErMin= 6 ErrMin= 7.29D-07
 ErrMax= 7.29D-07 EMaxC= 1.00D-01 BMatC= 7.45D-10 BMatP= 2.45D-09
 IDIUse=1 WtCom= 1.00D+00 WtEn= 0.00D+00
 Coeff-Com: -0.122D-02 0.528D-02 0.799D-02 0.635D-01 0.391D+00 0.533D+00
 Coeff:     -0.122D-02 0.528D-02 0.799D-02 0.635D-01 0.391D+00 0.533D+00
 Gap=     0.221 Goal=   None    Shift=    0.000
 RMSDP=4.44D-08 MaxDP=2.67D-06 DE=-1.25D-09 OVMax= 6.49D-06

 Cycle  14  Pass 1  IDiag  1:
 RMSU=  2.33D-08    CP:  1.00D+00  1.02D+00  5.89D-01  8.87D-01  1.05D+00
                    CP:  7.64D-01
 E= -684.164101175458     Delta-E=       -0.000000000551 Rises=F Damp=F
 DIIS: error= 3.21D-07 at cycle   7 NSaved=   7.
 NSaved= 7 IEnMin= 7 EnMin= -684.164101175458     IErMin= 7 ErrMin= 3.21D-07
 ErrMax= 3.21D-07 EMaxC= 1.00D-01 BMatC= 8.54D-11 BMatP= 7.45D-10
 IDIUse=1 WtCom= 1.00D+00 WtEn= 0.00D+00
 Coeff-Com: -0.450D-03-0.445D-02-0.384D-02 0.140D-01 0.167D+00 0.325D+00
 Coeff-Com:  0.503D+00
 Coeff:     -0.450D-03-0.445D-02-0.384D-02 0.140D-01 0.167D+00 0.325D+00
 Coeff:      0.503D+00
 Gap=     0.221 Goal=   None    Shift=    0.000
 RMSDP=1.37D-08 MaxDP=1.15D-06 DE=-5.51D-10 OVMax= 1.93D-06

 Cycle  15  Pass 1  IDiag  1:
 RMSU=  7.17D-09    CP:  1.00D+00  1.02D+00  5.89D-01  8.91D-01  1.06D+00
                    CP:  8.23D-01  8.13D-01
 E= -684.164101175505     Delta-E=       -0.000000000047 Rises=F Damp=F
 DIIS: error= 8.15D-08 at cycle   8 NSaved=   8.
 NSaved= 8 IEnMin= 8 EnMin= -684.164101175505     IErMin= 8 ErrMin= 8.15D-08
 ErrMax= 8.15D-08 EMaxC= 1.00D-01 BMatC= 1.05D-11 BMatP= 8.54D-11
 IDIUse=1 WtCom= 1.00D+00 WtEn= 0.00D+00
 Coeff-Com: -0.621D-04-0.351D-02-0.359D-02-0.164D-02 0.355D-01 0.110D+00
 Coeff-Com:  0.296D+00 0.567D+00
 Coeff:     -0.621D-04-0.351D-02-0.359D-02-0.164D-02 0.355D-01 0.110D+00
 Coeff:      0.296D+00 0.567D+00
 Gap=     0.221 Goal=   None    Shift=    0.000
 RMSDP=4.76D-09 MaxDP=3.85D-07 DE=-4.66D-11 OVMax= 5.16D-07

 SCF Done:  E(RM06) =  -684.164101176     A.U. after   15 cycles
             Convg  =    0.4762D-08             -V/T =  2.0082
 KE= 6.786328644485D+02 PE=-3.275496016389D+03 EE= 1.075057104276D+03
 Leave Link  502 at Sun Mar 10 20:19:38 2013, MaxMem= 4294967296 cpu:     815.0
 (Enter C:\G09W\l601.exe)
 Copying SCF densities to generalized density rwf, IOpCl= 0 IROHF=0.

 **********************************************************************

            Population analysis using the SCF density.

 **********************************************************************

 Orbital symmetries:
       Occupied  (A) (A) (A) (A) (A) (A) (A) (A) (A) (A) (A) (A)
                 (A) (A) (A) (A) (A) (A) (A) (A) (A) (A) (A) (A)
                 (A) (A) (A) (A) (A) (A) (A) (A) (A) (A) (A) (A)
                 (A) (A) (A) (A) (A) (A) (A) (A) (A) (A) (A) (A)
                 (A) (A)
       Virtual   (A) (A) (A) (A) (A) (A) (A) (A) (A) (A) (A) (A)
                 (A) (A) (A) (A) (A) (A) (A) (A) (A) (A) (A) (A)
                 (A) (A) (A) (A) (A) (A) (A) (A) (A) (A) (A) (A)
                 (A) (A) (A) (A) (A) (A) (A) (A) (A) (A) (A) (A)
                 (A) (A) (A) (A) (A) (A) (A) (A) (A) (A) (A) (A)
                 (A) (A) (A) (A) (A) (A) (A) (A) (A) (A) (A) (A)
                 (A) (A) (A) (A) (A) (A) (A) (A) (A) (A) (A) (A)
                 (A) (A) (A) (A) (A) (A) (A) (A) (A) (A) (A) (A)
                 (A) (A) (A) (A) (A) (A) (A) (A) (A) (A) (A) (A)
                 (A) (A) (A) (A) (A) (A) (A) (A) (A) (A) (A) (A)
                 (A) (A) (A) (A) (A) (A) (A) (A) (A) (A) (A) (A)
                 (A) (A) (A) (A) (A) (A) (A) (A) (A) (A) (A) (A)
                 (A) (A) (A) (A) (A) (A) (A) (A) (A) (A) (A) (A)
                 (A) (A) (A) (A) (A) (A) (A) (A) (A) (A) (A) (A)
                 (A) (A) (A) (A) (A) (A) (A) (A) (A) (A) (A) (A)
                 (A) (A) (A) (A) (A) (A) (A) (A) (A) (A) (A) (A)
                 (A) (A) (A) (A) (A) (A) (A) (A) (A) (A) (A) (A)
                 (A) (A) (A) (A) (A) (A) (A) (A) (A) (A) (A) (A)
                 (A) (A) (A) (A) (A) (A) (A) (A) (A) (A) (A) (A)
                 (A) (A) (A) (A) (A) (A) (A) (A) (A) (A) (A) (A)
                 (A) (A) (A) (A) (A) (A) (A) (A) (A) (A) (A) (A)
                 (A) (A) (A) (A) (A) (A) (A) (A) (A) (A) (A) (A)
                 (A) (A) (A) (A) (A) (A) (A) (A) (A) (A) (A) (A)
                 (A) (A) (A) (A) (A) (A) (A) (A) (A) (A) (A) (A)
                 (A) (A) (A) (A) (A) (A) (A) (A) (A) (A) (A) (A)
                 (A) (A) (A) (A) (A) (A) (A) (A) (A) (A) (A) (A)
                 (A) (A) (A) (A) (A) (A) (A) (A) (A) (A) (A) (A)
                 (A) (A) (A) (A) (A) (A) (A) (A) (A) (A) (A) (A)
                 (A) (A) (A) (A) (A) (A) (A) (A) (A) (A) (A) (A)
                 (A) (A) (A) (A) (A) (A) (A) (A) (A) (A) (A) (A)
                 (A) (A) (A) (A) (A) (A) (A) (A) (A) (A) (A) (A)
                 (A) (A) (A) (A) (A) (A) (A) (A) (A) (A) (A) (A)
                 (A) (A) (A) (A) (A) (A) (A) (A) (A) (A) (A) (A)
                 (A) (A) (A) (A) (A) (A) (A) (A) (A) (A) (A) (A)
                 (A) (A) (A) (A) (A) (A) (A) (A) (A) (A) (A) (A)
                 (A) (A) (A) (A) (A) (A) (A) (A) (A) (A) (A) (A)
                 (A) (A) (A) (A) (A) (A) (A) (A) (A) (A) (A) (A)
                 (A) (A) (A) (A) (A) (A) (A) (A) (A) (A) (A) (A)
                 (A) (A) (A) (A) (A) (A) (A) (A) (A) (A) (A) (A)
                 (A) (A) (A) (A) (A) (A) (A) (A) (A) (A) (A) (A)
                 (A) (A) (A) (A) (A) (A) (A) (A) (A) (A) (A) (A)
                 (A) (A) (A) (A) (A) (A) (A) (A) (A) (A) (A) (A)
                 (A) (A) (A) (A)
 The electronic state is 1-A.
 Alpha  occ. eigenvalues --  -19.26204 -19.23137 -19.22004 -19.20244 -14.42598
 Alpha  occ. eigenvalues --  -14.41548 -10.40544 -10.38202 -10.36933 -10.31403
 Alpha  occ. eigenvalues --  -10.28768 -10.26332 -10.25351  -1.10582  -1.07661
 Alpha  occ. eigenvalues --   -1.04905  -1.03069  -0.94752  -0.93187  -0.82055
 Alpha  occ. eigenvalues --   -0.76258  -0.72814  -0.68616  -0.63102  -0.60217
 Alpha  occ. eigenvalues --   -0.58512  -0.55175  -0.52060  -0.51145  -0.49919
 Alpha  occ. eigenvalues --   -0.49275  -0.48523  -0.47776  -0.46926  -0.45808
 Alpha  occ. eigenvalues --   -0.44015  -0.43536  -0.42571  -0.41995  -0.41358
 Alpha  occ. eigenvalues --   -0.40930  -0.40192  -0.38664  -0.37154  -0.34318
 Alpha  occ. eigenvalues --   -0.32206  -0.29780  -0.29235  -0.28017  -0.27294
 Alpha virt. eigenvalues --   -0.05201  -0.02271  -0.01569   0.01176   0.03036
 Alpha virt. eigenvalues --    0.03397   0.05192   0.06778   0.07343   0.08876
 Alpha virt. eigenvalues --    0.09297   0.10217   0.10579   0.11294   0.13886
 Alpha virt. eigenvalues --    0.14096   0.15241   0.15641   0.16702   0.19177
 Alpha virt. eigenvalues --    0.19395   0.21475   0.21955   0.23333   0.24867
 Alpha virt. eigenvalues --    0.25667   0.26571   0.26757   0.27587   0.28658
 Alpha virt. eigenvalues --    0.29388   0.30222   0.30434   0.32129   0.32517
 Alpha virt. eigenvalues --    0.33531   0.34692   0.34838   0.36124   0.37068
 Alpha virt. eigenvalues --    0.38570   0.39042   0.39262   0.39703   0.39948
 Alpha virt. eigenvalues --    0.40142   0.41471   0.41980   0.42465   0.43004
 Alpha virt. eigenvalues --    0.43469   0.43753   0.44650   0.45888   0.46989
 Alpha virt. eigenvalues --    0.47513   0.47800   0.48167   0.48639   0.49894
 Alpha virt. eigenvalues --    0.50640   0.51441   0.52677   0.53209   0.53914
 Alpha virt. eigenvalues --    0.55021   0.56404   0.56553   0.57750   0.58765
 Alpha virt. eigenvalues --    0.60651   0.62448   0.62749   0.63829   0.65239
 Alpha virt. eigenvalues --    0.66888   0.68002   0.69322   0.70510   0.71349
 Alpha virt. eigenvalues --    0.71577   0.71988   0.73501   0.74483   0.75520
 Alpha virt. eigenvalues --    0.77527   0.79661   0.80930   0.81653   0.83296
 Alpha virt. eigenvalues --    0.83615   0.84597   0.84865   0.85744   0.87043
 Alpha virt. eigenvalues --    0.88418   0.89014   0.90858   0.91518   0.92659
 Alpha virt. eigenvalues --    0.93875   0.95782   0.96609   0.97549   0.98683
 Alpha virt. eigenvalues --    0.99583   1.00520   1.01515   1.02294   1.02915
 Alpha virt. eigenvalues --    1.04210   1.04904   1.06151   1.06213   1.07081
 Alpha virt. eigenvalues --    1.08278   1.08920   1.10562   1.11640   1.12489
 Alpha virt. eigenvalues --    1.13537   1.13971   1.16802   1.17431   1.18451
 Alpha virt. eigenvalues --    1.19049   1.19840   1.21573   1.22246   1.22967
 Alpha virt. eigenvalues --    1.23481   1.23856   1.25742   1.26517   1.27237
 Alpha virt. eigenvalues --    1.28286   1.28802   1.29129   1.29285   1.31004
 Alpha virt. eigenvalues --    1.31991   1.33415   1.34002   1.37366   1.38173
 Alpha virt. eigenvalues --    1.39109   1.40812   1.42404   1.43065   1.44830
 Alpha virt. eigenvalues --    1.46406   1.48442   1.48873   1.49680   1.50571
 Alpha virt. eigenvalues --    1.53208   1.54308   1.55019   1.56532   1.57788
 Alpha virt. eigenvalues --    1.59616   1.61045   1.63265   1.64747   1.65930
 Alpha virt. eigenvalues --    1.68179   1.69771   1.72523   1.73300   1.75482
 Alpha virt. eigenvalues --    1.76870   1.79420   1.80922   1.82558   1.83783
 Alpha virt. eigenvalues --    1.85568   1.89434   1.91998   1.94419   1.98533
 Alpha virt. eigenvalues --    1.99944   2.01377   2.03548   2.04725   2.06744
 Alpha virt. eigenvalues --    2.09637   2.09733   2.12359   2.13729   2.16646
 Alpha virt. eigenvalues --    2.18457   2.20383   2.20853   2.21235   2.23790
 Alpha virt. eigenvalues --    2.26463   2.28567   2.29592   2.30993   2.33456
 Alpha virt. eigenvalues --    2.34934   2.36193   2.38706   2.40062   2.41591
 Alpha virt. eigenvalues --    2.43453   2.45105   2.46988   2.48241   2.49511
 Alpha virt. eigenvalues --    2.50147   2.50455   2.53779   2.54931   2.57646
 Alpha virt. eigenvalues --    2.59126   2.60864   2.61679   2.62228   2.63137
 Alpha virt. eigenvalues --    2.64061   2.66673   2.67586   2.68698   2.71111
 Alpha virt. eigenvalues --    2.71381   2.71867   2.72256   2.74206   2.76911
 Alpha virt. eigenvalues --    2.77910   2.78484   2.79104   2.81176   2.81888
 Alpha virt. eigenvalues --    2.83636   2.85929   2.86906   2.87679   2.87845
 Alpha virt. eigenvalues --    2.88857   2.90238   2.90920   2.92121   2.93506
 Alpha virt. eigenvalues --    2.94370   2.95032   2.96002   2.97676   2.98337
 Alpha virt. eigenvalues --    2.98878   2.99202   3.00717   3.01470   3.02700
 Alpha virt. eigenvalues --    3.03770   3.04361   3.04795   3.06226   3.07005
 Alpha virt. eigenvalues --    3.08313   3.10544   3.11352   3.12139   3.12335
 Alpha virt. eigenvalues --    3.12991   3.14390   3.15759   3.16530   3.19009
 Alpha virt. eigenvalues --    3.19305   3.20046   3.21088   3.22188   3.24040
 Alpha virt. eigenvalues --    3.24634   3.26361   3.27585   3.27809   3.28852
 Alpha virt. eigenvalues --    3.30092   3.31582   3.32337   3.32747   3.35081
 Alpha virt. eigenvalues --    3.35535   3.35913   3.37312   3.39088   3.40714
 Alpha virt. eigenvalues --    3.42149   3.42793   3.43409   3.43870   3.45502
 Alpha virt. eigenvalues --    3.45827   3.46526   3.47840   3.48204   3.49166
 Alpha virt. eigenvalues --    3.49688   3.52588   3.54074   3.55473   3.56811
 Alpha virt. eigenvalues --    3.57788   3.58970   3.60001   3.62763   3.63215
 Alpha virt. eigenvalues --    3.64767   3.66476   3.67862   3.69594   3.70854
 Alpha virt. eigenvalues --    3.72658   3.73161   3.74501   3.75381   3.76201
 Alpha virt. eigenvalues --    3.77391   3.78457   3.79964   3.80670   3.81478
 Alpha virt. eigenvalues --    3.82366   3.83614   3.84303   3.84765   3.86911
 Alpha virt. eigenvalues --    3.87843   3.89972   3.90635   3.91250   3.93593
 Alpha virt. eigenvalues --    3.94965   3.95672   3.96314   3.97691   3.98384
 Alpha virt. eigenvalues --    3.98998   4.00880   4.01421   4.03475   4.03992
 Alpha virt. eigenvalues --    4.04541   4.06420   4.07873   4.09088   4.10495
 Alpha virt. eigenvalues --    4.10870   4.12253   4.12889   4.15384   4.16467
 Alpha virt. eigenvalues --    4.17262   4.19483   4.19948   4.20169   4.21547
 Alpha virt. eigenvalues --    4.24008   4.25399   4.25724   4.28180   4.28744
 Alpha virt. eigenvalues --    4.29774   4.30229   4.31941   4.32754   4.34308
 Alpha virt. eigenvalues --    4.36724   4.39363   4.40341   4.42345   4.44634
 Alpha virt. eigenvalues --    4.46265   4.49430   4.53104   4.55406   4.58979
 Alpha virt. eigenvalues --    4.59688   4.63617   4.63809   4.68001   4.69589
 Alpha virt. eigenvalues --    4.72144   4.73584   4.75686   4.76752   4.78539
 Alpha virt. eigenvalues --    4.80043   4.81219   4.81609   4.84908   4.86195
 Alpha virt. eigenvalues --    4.86903   4.87592   4.89455   4.92097   4.92814
 Alpha virt. eigenvalues --    4.95356   4.96744   4.98072   5.00412   5.02778
 Alpha virt. eigenvalues --    5.04877   5.05998   5.06513   5.07419   5.08897
 Alpha virt. eigenvalues --    5.09860   5.10413   5.12351   5.13021   5.13967
 Alpha virt. eigenvalues --    5.14560   5.17239   5.17338   5.17987   5.18441
 Alpha virt. eigenvalues --    5.19710   5.20058   5.20664   5.22152   5.23575
 Alpha virt. eigenvalues --    5.23978   5.24419   5.26820   5.30101   5.30887
 Alpha virt. eigenvalues --    5.32612   5.35262   5.38060   5.42601   5.44061
 Alpha virt. eigenvalues --    5.44873   5.45944   5.48834   5.53611   5.54177
 Alpha virt. eigenvalues --    5.55641   5.58203   5.60291   5.63864   5.65224
 Alpha virt. eigenvalues --    5.67560   5.69413   5.73124   5.76058   5.76347
 Alpha virt. eigenvalues --    5.76887   5.78011   5.78294   5.79119   5.82154
 Alpha virt. eigenvalues --    5.86910   5.88951   5.90044   5.93672   5.95561
 Alpha virt. eigenvalues --    5.98071   6.04285   6.05745   6.09052   6.11873
 Alpha virt. eigenvalues --    6.17171   6.21579   6.35394   6.38844   6.42041
 Alpha virt. eigenvalues --    6.43163   6.45979   6.48108   6.48831   6.50366
 Alpha virt. eigenvalues --    6.52715   6.53004   6.57779   6.59846   6.61277
 Alpha virt. eigenvalues --    6.69889   6.72744   6.79521   6.83739   6.87027
 Alpha virt. eigenvalues --    6.87508   6.88374   7.01747   7.03465   7.04396
 Alpha virt. eigenvalues --    7.06505   7.07741   7.09815   7.20323   7.35481
 Alpha virt. eigenvalues --    8.68840   8.97308   9.10993  11.39773  11.63978
 Alpha virt. eigenvalues --   11.79450  11.86226  12.26609  12.40725  12.62348
 Alpha virt. eigenvalues --   13.06627  13.44413  13.70202
          Condensed to atoms (all electrons):
              1          2          3          4          5          6
     1  C    4.406882   0.265479  -0.028631  -0.019798  -0.027335  -0.005575
     2  C    0.265479   5.265213   0.416842   0.389688   0.138367  -0.013982
     3  H   -0.028631   0.416842   0.501031  -0.014373  -0.037640  -0.001107
     4  H   -0.019798   0.389688  -0.014373   0.487819  -0.029308   0.003430
     5  C   -0.027335   0.138367  -0.037640  -0.029308   5.324656   0.404557
     6  H   -0.005575  -0.013982  -0.001107   0.003430   0.404557   0.420496
     7  C   -0.004495  -0.054276   0.003975  -0.006126   0.206044  -0.040298
     8  O    0.375818  -0.075459   0.002402   0.001553   0.009663   0.001966
     9  H   -0.015265   0.014484  -0.000221  -0.000482  -0.003010  -0.000275
    10  O    0.688733  -0.079037   0.003781   0.000680   0.006136   0.000624
    11  O    0.000464   0.004185  -0.000913   0.010243  -0.070813   0.003387
    12  N   -0.003977  -0.027317   0.003742  -0.007691   0.265437  -0.031371
    13  H   -0.001626   0.000599   0.000361   0.006596  -0.039871   0.005326
    14  C    0.000670   0.002185  -0.000150  -0.000654  -0.025965   0.001136
    15  C   -0.000091  -0.000346   0.000016  -0.000036   0.005928   0.001811
    16  H   -0.000001  -0.000050   0.000002  -0.000016  -0.001205  -0.000217
    17  H    0.000002   0.000014  -0.000001   0.000005  -0.000487  -0.000054
    18  H    0.000013  -0.000015  -0.000002  -0.000045   0.000395  -0.000290
    19  C    0.000004  -0.000249  -0.000034  -0.000016   0.006321  -0.000005
    20  H    0.000002   0.000179  -0.000037  -0.000042   0.002211   0.000203
    21  H   -0.000001  -0.000011   0.000007  -0.000003  -0.000140  -0.000107
    22  H    0.000001  -0.000113   0.000005  -0.000007  -0.001629  -0.000339
    23  N    0.000061   0.005338  -0.000198   0.001631  -0.066825   0.014945
    24  H   -0.000046  -0.001829   0.000751  -0.000235   0.002690  -0.001015
    25  O   -0.000249   0.000749   0.000026  -0.000026  -0.004916   0.017987
              7          8          9         10         11         12
     1  C   -0.004495   0.375818  -0.015265   0.688733   0.000464  -0.003977
     2  C   -0.054276  -0.075459   0.014484  -0.079037   0.004185  -0.027317
     3  H    0.003975   0.002402  -0.000221   0.003781  -0.000913   0.003742
     4  H   -0.006126   0.001553  -0.000482   0.000680   0.010243  -0.007691
     5  C    0.206044   0.009663  -0.003010   0.006136  -0.070813   0.265437
     6  H   -0.040298   0.001966  -0.000275   0.000624   0.003387  -0.031371
     7  C    4.905664   0.000242   0.000050  -0.000284   0.628486  -0.039580
     8  O    0.000242   7.718485   0.315132  -0.085377  -0.000001  -0.025007
     9  H    0.000050   0.315132   0.495553   0.009072   0.000001   0.002933
    10  O   -0.000284  -0.085377   0.009072   7.812086  -0.000001  -0.000187
    11  O    0.628486  -0.000001   0.000001  -0.000001   7.866324  -0.008792
    12  N   -0.039580  -0.025007   0.002933  -0.000187  -0.008792   6.625273
    13  H   -0.006606   0.003418  -0.000236   0.000037   0.013378   0.344158
    14  C   -0.007917   0.005200  -0.000073   0.000015  -0.001892   0.236309
    15  C    0.001016  -0.000006   0.000002   0.000000   0.000454  -0.079605
    16  H    0.003349  -0.000004   0.000000   0.000000   0.001834  -0.003244
    17  H    0.000085   0.000009  -0.000003   0.000000   0.000071   0.005959
    18  H   -0.000102  -0.000021   0.000009   0.000000  -0.000329   0.011020
    19  C   -0.044941   0.000000   0.000000   0.000000  -0.010890  -0.000881
    20  H   -0.016418   0.000000   0.000000   0.000000   0.016884  -0.000007
    21  H    0.006246   0.000000   0.000000   0.000000   0.001174  -0.000006
    22  H    0.005659   0.000000   0.000000   0.000000  -0.002441  -0.000088
    23  N    0.284440   0.000002  -0.000001   0.000002  -0.101770   0.005573
    24  H   -0.006970   0.000000   0.000000  -0.000003  -0.000801   0.000024
    25  O    0.001386  -0.000099  -0.000004   0.000000   0.000010  -0.098128
             13         14         15         16         17         18
     1  C   -0.001626   0.000670  -0.000091  -0.000001   0.000002   0.000013
     2  C    0.000599   0.002185  -0.000346  -0.000050   0.000014  -0.000015
     3  H    0.000361  -0.000150   0.000016   0.000002  -0.000001  -0.000002
     4  H    0.006596  -0.000654  -0.000036  -0.000016   0.000005  -0.000045
     5  C   -0.039871  -0.025965   0.005928  -0.001205  -0.000487   0.000395
     6  H    0.005326   0.001136   0.001811  -0.000217  -0.000054  -0.000290
     7  C   -0.006606  -0.007917   0.001016   0.003349   0.000085  -0.000102
     8  O    0.003418   0.005200  -0.000006  -0.000004   0.000009  -0.000021
     9  H   -0.000236  -0.000073   0.000002   0.000000  -0.000003   0.000009
    10  O    0.000037   0.000015   0.000000   0.000000   0.000000   0.000000
    11  O    0.013378  -0.001892   0.000454   0.001834   0.000071  -0.000329
    12  N    0.344158   0.236309  -0.079605  -0.003244   0.005959   0.011020
    13  H    0.574969  -0.005625   0.002338  -0.000964   0.000568  -0.004293
    14  C   -0.005625   4.625418   0.291437  -0.018624  -0.028633  -0.045069
    15  C    0.002338   0.291437   4.982663   0.383202   0.395226   0.389565
    16  H   -0.000964  -0.018624   0.383202   0.553569  -0.019120  -0.032729
    17  H    0.000568  -0.028633   0.395226  -0.019120   0.541979  -0.027027
    18  H   -0.004293  -0.045069   0.389565  -0.032729  -0.027027   0.593678
    19  C   -0.000063  -0.000649  -0.000052   0.000341  -0.000047   0.000003
    20  H   -0.000111   0.000063  -0.000047  -0.000106  -0.000006   0.000008
    21  H   -0.000001  -0.000021   0.000010   0.000051  -0.000001  -0.000001
    22  H   -0.000047  -0.000223  -0.000142   0.000748  -0.000003   0.000128
    23  N    0.001502  -0.001120  -0.000328  -0.000613   0.000036  -0.000056
    24  H   -0.000028   0.000078   0.000005   0.000029   0.000001   0.000001
    25  O    0.004208   0.679708  -0.071855  -0.001998   0.005850   0.003643
             19         20         21         22         23         24
     1  C    0.000004   0.000002  -0.000001   0.000001   0.000061  -0.000046
     2  C   -0.000249   0.000179  -0.000011  -0.000113   0.005338  -0.001829
     3  H   -0.000034  -0.000037   0.000007   0.000005  -0.000198   0.000751
     4  H   -0.000016  -0.000042  -0.000003  -0.000007   0.001631  -0.000235
     5  C    0.006321   0.002211  -0.000140  -0.001629  -0.066825   0.002690
     6  H   -0.000005   0.000203  -0.000107  -0.000339   0.014945  -0.001015
     7  C   -0.044941  -0.016418   0.006246   0.005659   0.284440  -0.006970
     8  O    0.000000   0.000000   0.000000   0.000000   0.000002   0.000000
     9  H    0.000000   0.000000   0.000000   0.000000  -0.000001   0.000000
    10  O    0.000000   0.000000   0.000000   0.000000   0.000002  -0.000003
    11  O   -0.010890   0.016884   0.001174  -0.002441  -0.101770  -0.000801
    12  N   -0.000881  -0.000007  -0.000006  -0.000088   0.005573   0.000024
    13  H   -0.000063  -0.000111  -0.000001  -0.000047   0.001502  -0.000028
    14  C   -0.000649   0.000063  -0.000021  -0.000223  -0.001120   0.000078
    15  C   -0.000052  -0.000047   0.000010  -0.000142  -0.000328   0.000005
    16  H    0.000341  -0.000106   0.000051   0.000748  -0.000613   0.000029
    17  H   -0.000047  -0.000006  -0.000001  -0.000003   0.000036   0.000001
    18  H    0.000003   0.000008  -0.000001   0.000128  -0.000056   0.000001
    19  C    4.826669   0.404526   0.404456   0.395344   0.258503  -0.026516
    20  H    0.404526   0.618194  -0.034999  -0.048584  -0.050686  -0.008494
    21  H    0.404456  -0.034999   0.563463  -0.017366  -0.022034  -0.004025
    22  H    0.395344  -0.048584  -0.017366   0.574283  -0.035443   0.006658
    23  N    0.258503  -0.050686  -0.022034  -0.035443   6.518142   0.368658
    24  H   -0.026516  -0.008494  -0.004025   0.006658   0.368658   0.568180
    25  O    0.000142   0.000003  -0.000020   0.001282  -0.001711   0.000015
             25
     1  C   -0.000249
     2  C    0.000749
     3  H    0.000026
     4  H   -0.000026
     5  C   -0.004916
     6  H    0.017987
     7  C    0.001386
     8  O   -0.000099
     9  H   -0.000004
    10  O    0.000000
    11  O    0.000010
    12  N   -0.098128
    13  H    0.004208
    14  C    0.679708
    15  C   -0.071855
    16  H   -0.001998
    17  H    0.005850
    18  H    0.003643
    19  C    0.000142
    20  H    0.000003
    21  H   -0.000020
    22  H    0.001282
    23  N   -0.001711
    24  H    0.000015
    25  O    7.826000
 Mulliken atomic charges:
              1
     1  C    0.368961
     2  C   -0.250637
     3  H    0.150366
     4  H    0.177212
     5  C   -0.063261
     6  H    0.218767
     7  C    0.181372
     8  O   -0.247915
     9  H    0.182334
    10  O   -0.356277
    11  O   -0.348252
    12  N   -0.174547
    13  H    0.102015
    14  C    0.294395
    15  C   -0.301166
    16  H    0.135767
    17  H    0.125579
    18  H    0.111517
    19  C   -0.211966
    20  H    0.117265
    21  H    0.103329
    22  H    0.122320
    23  N   -0.178047
    24  H    0.102872
    25  O   -0.362002
 Sum of Mulliken atomic charges =   0.00000
 Mulliken charges with hydrogens summed into heavy atoms:
              1
     1  C    0.368961
     2  C    0.076940
     5  C    0.155506
     7  C    0.181372
     8  O   -0.065581
    10  O   -0.356277
    11  O   -0.348252
    12  N   -0.072532
    14  C    0.294395
    15  C    0.071697
    19  C    0.130948
    23  N   -0.075176
    25  O   -0.362002
 Sum of Mulliken charges with hydrogens summed into heavy atoms =   0.00000
 Electronic spatial extent (au):  <R**2>=           2782.8812
 Charge=              0.0000 electrons
 Dipole moment (field-independent basis, Debye):
    X=              1.5187    Y=             -0.4351    Z=              2.4335  Tot=              2.9013
 Quadrupole moment (field-independent basis, Debye-Ang):
   XX=            -79.5871   YY=            -69.5477   ZZ=            -82.6034
   XY=             -8.5011   XZ=             -2.7705   YZ=             10.0627
 Traceless Quadrupole moment (field-independent basis, Debye-Ang):
   XX=             -2.3411   YY=              7.6984   ZZ=             -5.3573
   XY=             -8.5011   XZ=             -2.7705   YZ=             10.0627
 Octapole moment (field-independent basis, Debye-Ang**2):
  XXX=             42.8648  YYY=             -5.8173  ZZZ=              5.0943  XYY=              9.6868
  XXY=             38.1631  XXZ=              8.7835  XZZ=            -18.1763  YZZ=             -1.4089
  YYZ=              4.2407  XYZ=             12.7892
 Hexadecapole moment (field-independent basis, Debye-Ang**3):
 XXXX=          -2187.0554 YYYY=           -958.2432 ZZZZ=           -329.3911 XXXY=           -218.6618
 XXXZ=            -45.9374 YYYX=            -33.0622 YYYZ=             34.1345 ZZZX=              1.4822
 ZZZY=             12.6481 XXYY=           -496.2316 XXZZ=           -416.6476 YYZZ=           -237.1470
 XXYZ=             18.7247 YYXZ=             -3.9039 ZZXY=             -3.9670
 N-N= 8.376419464896D+02 E-N=-3.275496011882D+03  KE= 6.786328644485D+02
 No NMR shielding tensors so no spin-rotation constants.
 Leave Link  601 at Sun Mar 10 20:19:41 2013, MaxMem= 4294967296 cpu:       3.0
 (Enter C:\G09W\l701.exe)
 Compute integral first derivatives.
 ... and contract with generalized density number  0.
 Leave Link  701 at Sun Mar 10 20:19:42 2013, MaxMem= 4294967296 cpu:       1.0
 (Enter C:\G09W\l702.exe)
 L702 exits ... SP integral derivatives will be done elsewhere.
 Leave Link  702 at Sun Mar 10 20:19:42 2013, MaxMem= 4294967296 cpu:       0.0
 (Enter C:\G09W\l703.exe)
 Compute integral first derivatives, UseDBF=F ICtDFT=           0.
 Integral derivatives from FoFDir, PRISM(SPDF).
 Calling FoFJK, ICntrl=      2127 FMM=F ISym2X=0 I1Cent= 0 IOpClX= 0 NMat=1 NMatS=1 NMatT=0.
 FoFCou: FMM=F IPFlag=           0 FMFlag=      100000 FMFlg1=         800
         NFxFlg=           0 DoJE=F BraDBF=F KetDBF=F FulRan=T
         Omega=  0.000000  0.000000  1.000000  0.000000  0.000000 ICntrl=    2127 IOpCl=  0
         NMat0=    1 NMatS0=    1 NMatT0=    0 NMatD0=    1 NMtDS0=    0 NMtDT0=    0
         I1Cent=           0 NGrid=           0.
 Symmetry not used in FoFCou.
 Leave Link  703 at Sun Mar 10 20:21:50 2013, MaxMem= 4294967296 cpu:     128.0
 (Enter C:\G09W\l716.exe)
 Dipole        = 5.97521029D-01-1.71191507D-01 9.57408401D-01
 ***** Axes restored to original set *****
 -------------------------------------------------------------------
 Center     Atomic                   Forces (Hartrees/Bohr)
 Number     Number              X              Y              Z
 -------------------------------------------------------------------
      1        6          -0.051378905   -0.052477327    0.051002134
      2        6          -0.035440502   -0.001356773   -0.042305168
      3        1           0.002930437   -0.010184304    0.008119215
      4        1           0.000883325    0.011894995    0.009680592
      5        6           0.007026693    0.009688902    0.015556799
      6        1          -0.003055438   -0.008221772   -0.010286606
      7        6           0.045959516    0.039528574    0.030862419
      8        8           0.053572815   -0.006518254    0.030868150
      9        1          -0.000850225   -0.012371694    0.006437898
     10        8           0.020124834    0.064015187   -0.064164296
     11        8          -0.032056277   -0.057768062   -0.039255285
     12        7           0.034941762    0.008190508   -0.058485457
     13        1           0.002289383    0.011373713    0.008597398
     14        6          -0.006449733   -0.051180269   -0.036973160
     15        6          -0.016832203   -0.031179802    0.017590870
     16        1           0.013580212    0.001768241    0.003035753
     17        1          -0.002605116   -0.001109980   -0.010827249
     18        1          -0.004563860    0.011537767    0.008282339
     19        6          -0.005119801   -0.013121804    0.015237454
     20        1           0.010225557    0.011428481    0.005824908
     21        1           0.006172809   -0.007432223   -0.007551594
     22        1          -0.005871811    0.007294153   -0.007810513
     23        7          -0.033690819    0.033092924    0.001504907
     24        1          -0.000478419   -0.013487179    0.005390217
     25        8           0.000685766    0.056595997    0.059668274
 -------------------------------------------------------------------
 Cartesian Forces:  Max     0.064164296 RMS     0.027446727
 Leave Link  716 at Sun Mar 10 20:21:50 2013, MaxMem= 4294967296 cpu:       0.0
 (Enter C:\G09W\l103.exe)

 GradGradGradGradGradGradGradGradGradGradGradGradGradGradGradGradGradGrad
 Berny optimization.
 Internal  Forces:  Max     0.092762021 RMS     0.018337007
 Search for a local minimum.
 Step number   1 out of a maximum of  123
 All quantities printed in internal units (Hartrees-Bohrs-Radians)
 RMS Force = .18337D-01 SwitMx=.10000D-02 MixMth= 1
 Mixed Optimization -- RFO/linear search
 Second derivative matrix not updated -- first step.
 ITU=  0
     Eigenvalues ---    0.00237   0.00237   0.00237   0.00237   0.00448
     Eigenvalues ---    0.00448   0.00501   0.00766   0.00766   0.00766
     Eigenvalues ---    0.00766   0.01295   0.03399   0.03399   0.04356
     Eigenvalues ---    0.04828   0.05056   0.05410   0.06194   0.07243
     Eigenvalues ---    0.07243   0.07537   0.07537   0.08669   0.11287
     Eigenvalues ---    0.11287   0.12376   0.16000   0.16000   0.16000
     Eigenvalues ---    0.16000   0.16000   0.16000   0.16000   0.16855
     Eigenvalues ---    0.17980   0.21983   0.23464   0.23464   0.25000
     Eigenvalues ---    0.25000   0.25000   0.25000   0.25000   0.25000
     Eigenvalues ---    0.28519   0.28519   0.28519   0.28519   0.35740
     Eigenvalues ---    0.35740   0.35740   0.35740   0.37230   0.37230
     Eigenvalues ---    0.37230   0.37230   0.37230   0.37230   0.37230
     Eigenvalues ---    0.37230   0.37230   0.40989   0.47688   0.47688
     Eigenvalues ---    0.55473   0.80209   0.80209   0.80209
 RFO step:  Lambda=-7.48711538D-02 EMin= 2.36824060D-03
 Linear search not attempted -- first point.
 Maximum step size (   0.300) exceeded in Quadratic search.
    -- Step size scaled by   0.777
 Iteration  1 RMS(Cart)=  0.12285146 RMS(Int)=  0.00420877
 Iteration  2 RMS(Cart)=  0.00828464 RMS(Int)=  0.00044958
 Iteration  3 RMS(Cart)=  0.00002252 RMS(Int)=  0.00044942
 Iteration  4 RMS(Cart)=  0.00000003 RMS(Int)=  0.00044942
 Variable       Old X    -DE/DX   Delta X   Delta X   Delta X     New X
                                 (Linear)    (Quad)   (Total)
    R1        2.91018  -0.01574   0.00000  -0.03396  -0.03396   2.87622
    R2        2.70231  -0.06680   0.00000  -0.10704  -0.10704   2.59527
    R3        2.37803  -0.09276   0.00000  -0.08217  -0.08217   2.29586
    R4        2.02201   0.01161   0.00000   0.02017   0.02017   2.04218
    R5        2.02201   0.01527   0.00000   0.02653   0.02653   2.04853
    R6        2.91018   0.00310   0.00000   0.00669   0.00669   2.91687
    R7        2.02201   0.01293   0.00000   0.02246   0.02246   2.04446
    R8        2.91018  -0.01456   0.00000  -0.03142  -0.03142   2.87876
    R9        2.77790  -0.00606   0.00000  -0.01090  -0.01090   2.76700
   R10        2.37803  -0.07566   0.00000  -0.06702  -0.06702   2.31101
   R11        2.77790  -0.03509   0.00000  -0.06306  -0.06306   2.71484
   R12        1.81414   0.00367   0.00000   0.00453   0.00453   1.81866
   R13        1.88973   0.01443   0.00000   0.02031   0.02031   1.91004
   R14        2.77790  -0.04505   0.00000  -0.08096  -0.08096   2.69693
   R15        2.91018  -0.02447   0.00000  -0.05280  -0.05280   2.85737
   R16        2.37803  -0.08203   0.00000  -0.07267  -0.07267   2.30536
   R17        2.02201   0.01381   0.00000   0.02399   0.02399   2.04599
   R18        2.02201   0.01086   0.00000   0.01887   0.01887   2.04087
   R19        2.02201   0.01434   0.00000   0.02492   0.02492   2.04692
   R20        2.02201   0.01473   0.00000   0.02558   0.02558   2.04759
   R21        2.02201   0.01204   0.00000   0.02092   0.02092   2.04293
   R22        2.02201   0.01215   0.00000   0.02111   0.02111   2.04312
   R23        2.77790   0.00029   0.00000   0.00051   0.00051   2.77841
   R24        1.88973   0.01191   0.00000   0.01677   0.01677   1.90650
    A1        2.09440  -0.00399   0.00000  -0.00954  -0.00954   2.08486
    A2        2.09440   0.00379   0.00000   0.00906   0.00906   2.10345
    A3        2.09440   0.00020   0.00000   0.00048   0.00048   2.09488
    A4        1.91063  -0.02138   0.00000  -0.07157  -0.07187   1.83876
    A5        1.91063  -0.01040   0.00000  -0.01663  -0.01850   1.89213
    A6        1.91063   0.04540   0.00000   0.12495   0.12481   2.03544
    A7        1.91063   0.00542   0.00000  -0.00346  -0.00497   1.90567
    A8        1.91063  -0.00773   0.00000  -0.01478  -0.01290   1.89773
    A9        1.91063  -0.01132   0.00000  -0.01850  -0.01961   1.89103
   A10        1.91063  -0.00057   0.00000   0.00557   0.00517   1.91580
   A11        1.91063  -0.00689   0.00000  -0.02288  -0.02249   1.88814
   A12        1.91063   0.01399   0.00000   0.04494   0.04461   1.95524
   A13        1.91063   0.00298   0.00000   0.00066   0.00057   1.91121
   A14        1.91063  -0.00186   0.00000  -0.00037  -0.00095   1.90968
   A15        1.91063  -0.00765   0.00000  -0.02792  -0.02758   1.88305
   A16        2.09440  -0.00220   0.00000  -0.00527  -0.00544   2.08895
   A17        2.09440  -0.01497   0.00000  -0.03580  -0.03598   2.05841
   A18        2.09440   0.01717   0.00000   0.04107   0.04087   2.13526
   A19        1.91063  -0.01710   0.00000  -0.05654  -0.05654   1.85409
   A20        1.91063  -0.00132   0.00000   0.00790   0.00759   1.91822
   A21        1.91063   0.01783   0.00000   0.04807   0.04773   1.95837
   A22        1.91063  -0.00534   0.00000  -0.00745  -0.00811   1.90252
   A23        2.09440  -0.01651   0.00000  -0.03948  -0.03948   2.05491
   A24        2.09440   0.00391   0.00000   0.00934   0.00934   2.10373
   A25        2.09440   0.01260   0.00000   0.03013   0.03013   2.12452
   A26        1.91063  -0.00380   0.00000  -0.01438  -0.01440   1.89624
   A27        1.91063  -0.00325   0.00000  -0.01018  -0.01025   1.90039
   A28        1.91063   0.00641   0.00000   0.02246   0.02250   1.93313
   A29        1.91063   0.00193   0.00000   0.00390   0.00377   1.91440
   A30        1.91063  -0.00203   0.00000  -0.00783  -0.00775   1.90288
   A31        1.91063   0.00072   0.00000   0.00603   0.00602   1.91665
   A32        1.91063  -0.00174   0.00000  -0.00233  -0.00234   1.90829
   A33        1.91063  -0.00330   0.00000  -0.00901  -0.00902   1.90161
   A34        1.91063   0.01191   0.00000   0.04207   0.04205   1.95269
   A35        1.91063  -0.00026   0.00000  -0.00617  -0.00638   1.90425
   A36        1.91063  -0.00385   0.00000  -0.01370  -0.01381   1.89682
   A37        1.91063  -0.00277   0.00000  -0.01086  -0.01097   1.89966
   A38        1.91063   0.01183   0.00000   0.03160   0.03148   1.94211
   A39        1.91063  -0.00360   0.00000  -0.00565  -0.00589   1.90474
   A40        1.91063  -0.00120   0.00000   0.00351   0.00341   1.91404
    D1       -2.61799  -0.00659   0.00000  -0.02993  -0.02830  -2.64629
    D2        1.57080   0.00623   0.00000   0.02832   0.02788   1.59867
    D3       -0.52360  -0.00134   0.00000  -0.01535  -0.01654  -0.54014
    D4        0.52360  -0.00634   0.00000  -0.02752  -0.02588   0.49772
    D5       -1.57080   0.00648   0.00000   0.03074   0.03029  -1.54050
    D6        2.61799  -0.00109   0.00000  -0.01294  -0.01413   2.60387
    D7       -2.61799  -0.00812   0.00000  -0.07174  -0.07174  -2.68974
    D8        0.52360  -0.00837   0.00000  -0.07415  -0.07415   0.44945
    D9       -1.04720   0.00423   0.00000   0.03608   0.03590  -1.01129
   D10        3.14159   0.00515   0.00000   0.04588   0.04573  -3.09586
   D11        1.04720   0.01017   0.00000   0.06657   0.06674   1.11394
   D12        1.04720   0.00112   0.00000   0.01589   0.01605   1.06324
   D13       -1.04720   0.00204   0.00000   0.02569   0.02588  -1.02132
   D14        3.14159   0.00706   0.00000   0.04638   0.04688  -3.09471
   D15        3.14159  -0.00390   0.00000  -0.00873  -0.00909   3.13250
   D16        1.04720  -0.00298   0.00000   0.00107   0.00074   1.04794
   D17       -1.04720   0.00204   0.00000   0.02176   0.02175  -1.02545
   D18       -1.13621  -0.00641   0.00000  -0.03629  -0.03624  -1.17245
   D19        2.00538  -0.00280   0.00000  -0.00086  -0.00121   2.00417
   D20        3.05258  -0.00332   0.00000  -0.02951  -0.02931   3.02327
   D21       -0.08901   0.00030   0.00000   0.00593   0.00572  -0.08329
[...]
 Alpha virt. eigenvalues --    0.78825   0.80328   0.81097   0.81984   0.83376
 Alpha virt. eigenvalues --    0.84166   0.84905   0.85802   0.86999   0.87834
 Alpha virt. eigenvalues --    0.89572   0.90301   0.91728   0.92196   0.94069
 Alpha virt. eigenvalues --    0.94696   0.95012   0.96812   0.97675   0.97943
 Alpha virt. eigenvalues --    0.99159   0.99667   1.00991   1.01462   1.02152
 Alpha virt. eigenvalues --    1.02542   1.05004   1.05637   1.06333   1.07887
 Alpha virt. eigenvalues --    1.08681   1.10928   1.11041   1.13495   1.14374
 Alpha virt. eigenvalues --    1.15259   1.15952   1.16806   1.17646   1.18501
 Alpha virt. eigenvalues --    1.19175   1.20645   1.20804   1.22395   1.23316
 Alpha virt. eigenvalues --    1.24026   1.24563   1.25312   1.26108   1.26749
 Alpha virt. eigenvalues --    1.27652   1.28521   1.29579   1.31255   1.31872
 Alpha virt. eigenvalues --    1.32926   1.34043   1.34294   1.36137   1.36795
 Alpha virt. eigenvalues --    1.39425   1.40386   1.42472   1.44734   1.45777
 Alpha virt. eigenvalues --    1.46337   1.48627   1.49523   1.50491   1.52002
 Alpha virt. eigenvalues --    1.54109   1.56268   1.56921   1.58239   1.61924
 Alpha virt. eigenvalues --    1.62539   1.63659   1.67358   1.68091   1.70809
 Alpha virt. eigenvalues --    1.72668   1.73218   1.74511   1.75821   1.77224
 Alpha virt. eigenvalues --    1.78078   1.82298   1.84612   1.87647   1.88656
 Alpha virt. eigenvalues --    1.93050   1.96055   1.99110   2.00111   2.02079
 Alpha virt. eigenvalues --    2.03779   2.05192   2.07230   2.08578   2.09222
 Alpha virt. eigenvalues --    2.11938   2.12750   2.14655   2.17050   2.17902
 Alpha virt. eigenvalues --    2.18966   2.20022   2.23260   2.24874   2.27214
 Alpha virt. eigenvalues --    2.28158   2.29484   2.30749   2.32845   2.33608
 Alpha virt. eigenvalues --    2.37224   2.39698   2.40276   2.41789   2.43446
 Alpha virt. eigenvalues --    2.44988   2.47465   2.49254   2.50842   2.51514
 Alpha virt. eigenvalues --    2.53875   2.55269   2.55941   2.58247   2.61389
 Alpha virt. eigenvalues --    2.61995   2.62702   2.63651   2.64338   2.65965
 Alpha virt. eigenvalues --    2.67934   2.68333   2.69287   2.70180   2.70841
 Alpha virt. eigenvalues --    2.72229   2.72619   2.74045   2.75411   2.76300
 Alpha virt. eigenvalues --    2.77937   2.79464   2.81013   2.82529   2.84449
 Alpha virt. eigenvalues --    2.85516   2.86219   2.87474   2.87870   2.89747
 Alpha virt. eigenvalues --    2.90348   2.91534   2.92483   2.93131   2.95336
 Alpha virt. eigenvalues --    2.96932   2.97341   2.98212   2.98630   2.99680
 Alpha virt. eigenvalues --    3.01003   3.03053   3.03628   3.03731   3.05469
 Alpha virt. eigenvalues --    3.06299   3.07939   3.08156   3.09364   3.11363
 Alpha virt. eigenvalues --    3.11720   3.13565   3.15834   3.16333   3.17153
 Alpha virt. eigenvalues --    3.18567   3.19337   3.20137   3.21097   3.22295
 Alpha virt. eigenvalues --    3.23487   3.24052   3.25043   3.26199   3.26896
 Alpha virt. eigenvalues --    3.28061   3.28993   3.29935   3.30421   3.30899
 Alpha virt. eigenvalues --    3.32378   3.32791   3.33545   3.35172   3.35493
 Alpha virt. eigenvalues --    3.36776   3.38058   3.38850   3.39953   3.42073
 Alpha virt. eigenvalues --    3.43433   3.43569   3.44571   3.46797   3.47019
 Alpha virt. eigenvalues --    3.47861   3.50402   3.51870   3.53010   3.54508
 Alpha virt. eigenvalues --    3.54885   3.55483   3.56431   3.57616   3.60053
 Alpha virt. eigenvalues --    3.61859   3.62817   3.64764   3.65470   3.66626
 Alpha virt. eigenvalues --    3.68003   3.70194   3.70721   3.71180   3.72177
 Alpha virt. eigenvalues --    3.73022   3.73657   3.76513   3.76860   3.77382
 Alpha virt. eigenvalues --    3.78317   3.79909   3.81044   3.81579   3.83151
 Alpha virt. eigenvalues --    3.84730   3.86460   3.87194   3.87495   3.89477
 Alpha virt. eigenvalues --    3.91167   3.93351   3.93953   3.95324   3.95998
 Alpha virt. eigenvalues --    3.98933   3.99186   4.00067   4.01907   4.03727
 Alpha virt. eigenvalues --    4.04802   4.05345   4.05735   4.06455   4.06920
 Alpha virt. eigenvalues --    4.07228   4.08351   4.09341   4.10950   4.13055
 Alpha virt. eigenvalues --    4.14442   4.15618   4.18335   4.18896   4.20379
 Alpha virt. eigenvalues --    4.21798   4.21989   4.22721   4.24283   4.25811
 Alpha virt. eigenvalues --    4.26491   4.27592   4.28319   4.31044   4.31290
 Alpha virt. eigenvalues --    4.33302   4.34146   4.35927   4.37427   4.39822
 Alpha virt. eigenvalues --    4.41693   4.45160   4.47713   4.48541   4.50697
 Alpha virt. eigenvalues --    4.51164   4.54028   4.57827   4.61172   4.62510
 Alpha virt. eigenvalues --    4.64478   4.65263   4.66662   4.68269   4.70883
 Alpha virt. eigenvalues --    4.72479   4.74045   4.75597   4.76332   4.77649
 Alpha virt. eigenvalues --    4.79282   4.79642   4.82277   4.84511   4.84800
 Alpha virt. eigenvalues --    4.86406   4.87746   4.90915   4.91863   4.93089
 Alpha virt. eigenvalues --    4.94793   4.95420   4.96235   4.98149   4.98872
 Alpha virt. eigenvalues --    5.01062   5.01554   5.01657   5.04588   5.06366
 Alpha virt. eigenvalues --    5.07994   5.10712   5.12654   5.13715   5.14650
 Alpha virt. eigenvalues --    5.15894   5.16458   5.18206   5.18637   5.19609
 Alpha virt. eigenvalues --    5.21234   5.22099   5.23167   5.23631   5.24410
 Alpha virt. eigenvalues --    5.27784   5.28549   5.29256   5.33170   5.33813
 Alpha virt. eigenvalues --    5.34849   5.36773   5.38620   5.42268   5.43296
 Alpha virt. eigenvalues --    5.48146   5.53425   5.55884   5.57156   5.59005
 Alpha virt. eigenvalues --    5.61922   5.63187   5.68296   5.69853   5.72742
 Alpha virt. eigenvalues --    5.73357   5.74803   5.75689   5.77280   5.79550
 Alpha virt. eigenvalues --    5.80425   5.81989   5.88486   5.92829   5.94549
 Alpha virt. eigenvalues --    5.96379   5.98061   5.98739   6.02422   6.06180
 Alpha virt. eigenvalues --    6.11995   6.20578   6.21662   6.22310   6.29840
 Alpha virt. eigenvalues --    6.33266   6.38929   6.42023   6.45985   6.47640
 Alpha virt. eigenvalues --    6.48821   6.49951   6.51260   6.54788   6.60276
 Alpha virt. eigenvalues --    6.61991   6.65446   6.70067   6.74893   6.77567
 Alpha virt. eigenvalues --    6.79390   6.88065   6.89201   6.90488   6.91756
 Alpha virt. eigenvalues --    6.92634   6.93745   7.03777   7.10143   7.12675
 Alpha virt. eigenvalues --    7.15288   7.19520   7.22377   7.30787   7.42180
 Alpha virt. eigenvalues --    9.11358   9.58243   9.83321  11.92355  12.26551
 Alpha virt. eigenvalues --   12.43520  12.73760  13.02843  13.29428  13.30417
 Alpha virt. eigenvalues --   13.50275  13.71244  13.89760
          Condensed to atoms (all electrons):
              1          2          3          4          5          6
     1  C    4.403086   0.226011  -0.016716  -0.040805  -0.027628  -0.007819
     2  C    0.226011   5.290284   0.402759   0.415670   0.194027   0.004043
     3  H   -0.016716   0.402759   0.489047  -0.010961  -0.035855  -0.001762
     4  H   -0.040805   0.415670  -0.010961   0.465480  -0.033485   0.005726
     5  C   -0.027628   0.194027  -0.035855  -0.033485   5.551176   0.383690
     6  H   -0.007819   0.004043  -0.001762   0.005726   0.383690   0.463626
     7  C    0.005053  -0.069324  -0.001950  -0.005595   0.169762  -0.023665
     8  O    0.414955  -0.084472   0.003580   0.002144   0.005181   0.005305
     9  H   -0.030785   0.016183  -0.000975  -0.000623  -0.000539  -0.000381
    10  O    0.705461  -0.079053   0.002992   0.001190  -0.004484   0.000081
    11  O    0.002892   0.027159   0.003245   0.011372  -0.116130   0.001561
    12  N    0.014114  -0.059523   0.003653  -0.003173   0.191669  -0.047653
    13  H   -0.008153   0.002864   0.000598   0.003383  -0.028897   0.003933
    14  C    0.000703   0.004936   0.000048  -0.000804  -0.056813  -0.013235
    15  C    0.000256  -0.000081   0.000028  -0.000092   0.009486   0.000586
    16  H    0.000036  -0.000080  -0.000001  -0.000009  -0.000412  -0.000202
    17  H   -0.000085   0.000109  -0.000001   0.000011  -0.000347   0.000173
    18  H    0.000103  -0.000158  -0.000003  -0.000007   0.000215  -0.000240
    19  C   -0.000004  -0.000747  -0.000014  -0.000030   0.009252  -0.000649
    20  H    0.000001   0.000026   0.000009  -0.000002  -0.000697  -0.000055
    21  H   -0.000001   0.000028  -0.000003   0.000013   0.000230   0.000108
    22  H   -0.000007  -0.000459  -0.000033  -0.000100   0.005075  -0.000371
    23  N    0.000276   0.008181  -0.000015   0.000577  -0.090110   0.000156
    24  H   -0.000109  -0.000027  -0.000040  -0.000086   0.010345  -0.000874
    25  O   -0.000417   0.002586   0.000040  -0.000021   0.029998   0.014639
              7          8          9         10         11         12
     1  C    0.005053   0.414955  -0.030785   0.705461   0.002892   0.014114
     2  C   -0.069324  -0.084472   0.016183  -0.079053   0.027159  -0.059523
     3  H   -0.001950   0.003580  -0.000975   0.002992   0.003245   0.003653
     4  H   -0.005595   0.002144  -0.000623   0.001190   0.011372  -0.003173
     5  C    0.169762   0.005181  -0.000539  -0.004484  -0.116130   0.191669
     6  H   -0.023665   0.005305  -0.000381   0.000081   0.001561  -0.047653
     7  C    4.521167  -0.000287   0.000106  -0.000505   0.729791  -0.009664
     8  O   -0.000287   7.672383   0.328103  -0.099627  -0.000003  -0.000589
     9  H    0.000106   0.328103   0.480518   0.013076   0.000002   0.000027
    10  O   -0.000505  -0.099627   0.013076   7.814619  -0.000005  -0.010309
    11  O    0.729791  -0.000003   0.000002  -0.000005   7.819072   0.001476
    12  N   -0.009664  -0.000589   0.000027  -0.010309   0.001476   6.572020
    13  H    0.000212   0.001174  -0.000295   0.022267  -0.000066   0.366610
    14  C    0.004031  -0.000169   0.000041  -0.000598  -0.000587   0.367764
    15  C   -0.001246  -0.000013   0.000005   0.000168  -0.000001  -0.053769
    16  H    0.000110   0.000000   0.000000   0.000005  -0.000002  -0.000081
    17  H    0.000035  -0.000001   0.000000  -0.000005   0.000000  -0.000404
    18  H    0.000222  -0.000007   0.000005   0.000173  -0.000002   0.010475
    19  C   -0.061308   0.000000   0.000000   0.000000  -0.015061  -0.000723
    20  H    0.004176   0.000000   0.000000   0.000000  -0.000003  -0.000009
    21  H    0.000796   0.000000   0.000000   0.000000   0.000038   0.000180
    22  H   -0.015658   0.000000   0.000000   0.000000   0.029159  -0.000235
    23  N    0.482421   0.000002   0.000000  -0.000005  -0.111355  -0.002185
    24  H   -0.035179  -0.000005   0.000000  -0.000002   0.003378  -0.005296
    25  O   -0.019523   0.000001   0.000002  -0.000001   0.000038  -0.134986
             13         14         15         16         17         18
     1  C   -0.008153   0.000703   0.000256   0.000036  -0.000085   0.000103
     2  C    0.002864   0.004936  -0.000081  -0.000080   0.000109  -0.000158
     3  H    0.000598   0.000048   0.000028  -0.000001  -0.000001  -0.000003
     4  H    0.003383  -0.000804  -0.000092  -0.000009   0.000011  -0.000007
     5  C   -0.028897  -0.056813   0.009486  -0.000412  -0.000347   0.000215
     6  H    0.003933  -0.013235   0.000586  -0.000202   0.000173  -0.000240
     7  C    0.000212   0.004031  -0.001246   0.000110   0.000035   0.000222
     8  O    0.001174  -0.000169  -0.000013   0.000000  -0.000001  -0.000007
     9  H   -0.000295   0.000041   0.000005   0.000000   0.000000   0.000005
    10  O    0.022267  -0.000598   0.000168   0.000005  -0.000005   0.000173
    11  O   -0.000066  -0.000587  -0.000001  -0.000002   0.000000  -0.000002
    12  N    0.366610   0.367764  -0.053769  -0.000081  -0.000404   0.010475
    13  H    0.485315  -0.014924  -0.001914  -0.000065   0.000157  -0.001287
    14  C   -0.014924   4.543151   0.291370  -0.027984  -0.026046  -0.055800
    15  C   -0.001914   0.291370   4.926782   0.387421   0.388059   0.407023
    16  H   -0.000065  -0.027984   0.387421   0.576741  -0.026842  -0.024837
    17  H    0.000157  -0.026046   0.388059  -0.026842   0.571962  -0.024445
    18  H   -0.001287  -0.055800   0.407023  -0.024837  -0.024445   0.579379
    19  C    0.000012   0.000021  -0.000057   0.000025  -0.000003   0.000000
    20  H    0.000003   0.000186   0.000003   0.000000   0.000000   0.000000
    21  H   -0.000011  -0.000323  -0.000015  -0.000018   0.000001  -0.000001
    22  H    0.000000  -0.000007  -0.000005   0.000004   0.000000   0.000001
    23  N   -0.000059   0.009246   0.000011   0.000114   0.000000   0.000030
    24  H   -0.000225  -0.007121   0.001674  -0.000071  -0.000037  -0.000173
    25  O    0.003550   0.662079  -0.056021   0.001356   0.001829   0.003502
             19         20         21         22         23         24
     1  C   -0.000004   0.000001  -0.000001  -0.000007   0.000276  -0.000109
     2  C   -0.000747   0.000026   0.000028  -0.000459   0.008181  -0.000027
     3  H   -0.000014   0.000009  -0.000003  -0.000033  -0.000015  -0.000040
     4  H   -0.000030  -0.000002   0.000013  -0.000100   0.000577  -0.000086
     5  C    0.009252  -0.000697   0.000230   0.005075  -0.090110   0.010345
     6  H   -0.000649  -0.000055   0.000108  -0.000371   0.000156  -0.000874
     7  C   -0.061308   0.004176   0.000796  -0.015658   0.482421  -0.035179
     8  O    0.000000   0.000000   0.000000   0.000000   0.000002  -0.000005
     9  H    0.000000   0.000000   0.000000   0.000000   0.000000   0.000000
    10  O    0.000000   0.000000   0.000000   0.000000  -0.000005  -0.000002
    11  O   -0.015061  -0.000003   0.000038   0.029159  -0.111355   0.003378
    12  N   -0.000723  -0.000009   0.000180  -0.000235  -0.002185  -0.005296
    13  H    0.000012   0.000003  -0.000011   0.000000  -0.000059  -0.000225
    14  C    0.000021   0.000186  -0.000323  -0.000007   0.009246  -0.007121
    15  C   -0.000057   0.000003  -0.000015  -0.000005   0.000011   0.001674
    16  H    0.000025   0.000000  -0.000018   0.000004   0.000114  -0.000071
    17  H   -0.000003   0.000000   0.000001   0.000000   0.000000  -0.000037
    18  H    0.000000   0.000000  -0.000001   0.000001   0.000030  -0.000173
    19  C    4.804302   0.402060   0.399408   0.398962   0.270870  -0.027816
    20  H    0.402060   0.606021  -0.042555  -0.025397  -0.034369  -0.005563
    21  H    0.399408  -0.042555   0.618624  -0.030730  -0.036971  -0.001637
    22  H    0.398962  -0.025397  -0.030730   0.549166  -0.039620   0.004771
    23  N    0.270870  -0.034369  -0.036971  -0.039620   6.400163   0.380293
    24  H   -0.027816  -0.005563  -0.001637   0.004771   0.380293   0.452412
    25  O    0.000514  -0.000034   0.000124  -0.000062  -0.019533   0.039938
             25
     1  C   -0.000417
     2  C    0.002586
     3  H    0.000040
     4  H   -0.000021
     5  C    0.029998
     6  H    0.014639
     7  C   -0.019523
     8  O    0.000001
     9  H    0.000002
    10  O   -0.000001
    11  O    0.000038
    12  N   -0.134986
    13  H    0.003550
    14  C    0.662079
    15  C   -0.056021
    16  H    0.001356
    17  H    0.001829
    18  H    0.003502
    19  C    0.000514
    20  H   -0.000034
    21  H    0.000124
    22  H   -0.000062
    23  N   -0.019533
    24  H    0.039938
    25  O    7.885548
 Mulliken atomic charges:
              1
     1  C    0.359582
     2  C   -0.300941
     3  H    0.162328
     4  H    0.190230
     5  C   -0.164707
     6  H    0.213279
     7  C    0.326019
     8  O   -0.247656
     9  H    0.195531
    10  O   -0.365435
    11  O   -0.385969
    12  N   -0.199388
    13  H    0.165819
    14  C    0.320834
    15  C   -0.299658
    16  H    0.114792
    17  H    0.115882
    18  H    0.105832
    19  C   -0.179016
    20  H    0.096199
    21  H    0.092714
    22  H    0.125545
    23  N   -0.218117
    24  H    0.191450
    25  O   -0.415148
 Sum of Mulliken atomic charges =   0.00000
 Mulliken charges with hydrogens summed into heavy atoms:
              1
     1  C    0.359582
     2  C    0.051617
     5  C    0.048571
     7  C    0.326019
     8  O   -0.052124
    10  O   -0.365435
    11  O   -0.385969
    12  N   -0.033569
    14  C    0.320834
    15  C    0.036847
    19  C    0.135442
    23  N   -0.026667
    25  O   -0.415148
 Sum of Mulliken charges with hydrogens summed into heavy atoms =   0.00000
 Electronic spatial extent (au):  <R**2>=           2748.4223
 Charge=              0.0000 electrons
 Dipole moment (field-independent basis, Debye):
    X=             -1.1723    Y=              1.6206    Z=             -0.4452  Tot=              2.0491
 Quadrupole moment (field-independent basis, Debye-Ang):
   XX=            -68.8535   YY=            -78.9105   ZZ=            -78.5594
   XY=              2.0242   XZ=              4.0631   YZ=              7.2504
 Traceless Quadrupole moment (field-independent basis, Debye-Ang):
   XX=              6.5877   YY=             -3.4694   ZZ=             -3.1183
   XY=              2.0242   XZ=              4.0631   YZ=              7.2504
 Octapole moment (field-independent basis, Debye-Ang**2):
  XXX=             -3.3812  YYY=             26.8785  ZZZ=             -0.5766  XYY=            -21.1676
  XXY=            -10.3025  XXZ=            -29.6552  XZZ=             -8.9855  YZZ=             -0.1382
  YYZ=              5.7172  XYZ=             12.5894
 Hexadecapole moment (field-independent basis, Debye-Ang**3):
 XXXX=          -1693.9535 YYYY=          -1200.5656 ZZZZ=           -268.8625 XXXY=             29.4107
 XXXZ=            112.2723 YYYX=             15.7228 YYYZ=             36.5880 ZZZX=              7.6915
 ZZZY=              3.6570 XXYY=           -540.7737 XXZZ=           -358.5665 YYZZ=           -265.8954
 XXYZ=              5.6614 YYXZ=             -3.1057 ZZXY=             -2.0634
 N-N= 8.491274041865D+02 E-N=-3.299278310051D+03  KE= 6.796215206174D+02
 Calculating spin-rotation constants.
 Leave Link  601 at Wed Mar 13 17:06:50 2013, MaxMem= 2147483648 cpu:      61.0
 (Enter C:\G09W\l9999.exe)

 Test job not archived.
 1|1|UNPC-IMOEN|SP|RM06|Gen|C7H12N2O4|ZENAWI|13-Mar-2013|0||#P Geom=All
 Check Guess=TCheck SCRF=Check GenChk RM06/ChkBas NMR=ReadFC IOp(3/6=22
 )||J-coupling calculation 1||0,1|C,0,-4.3060285233,2.5917839326,3.8245
 315363|C,0,-2.8110749198,2.612487721,3.8543598461|H,0,-2.4114540186,1.
 6910310674,4.2714368445|H,0,-2.4807226166,3.4389107057,4.4842218499|C,
 0,-2.2505282027,2.8045843,2.4539114168|H,0,-2.5153766003,1.9532791035,
 1.8162558741|C,0,-0.7158098075,2.8898807964,2.5311306314|O,0,-4.801120
 3565,1.3491898823,3.7714406745|H,0,-5.7630295636,1.4334869351,3.717411
 6347|O,0,-5.0027269331,3.5712949442,3.8089148907|O,0,-0.1376040791,2.9
 743056121,3.5940488485|N,0,-2.8247002702,3.9962117175,1.8473141853|H,0
 ,-3.3617274244,4.6017352294,2.4500652566|C,0,-2.952205871,4.1370922216
 ,0.5057332464|C,0,-3.7463201074,5.3233088262,0.0449097701|H,0,-3.10978
 88209,5.9502668142,-0.5778443963|H,0,-4.5620529392,4.9686271071,-0.583
 3874042|H,0,-4.1540398687,5.9201539383,0.8586490673|C,0,1.3103444022,2
 .968250149,1.1721162478|H,0,1.7157407919,2.1137073819,0.6290925521|H,0
 ,1.5827655602,3.8791786726,0.6364339897|H,0,1.7567193941,2.9988590028,
 2.1631988911|N,0,-0.1177090598,2.8540165491,1.3252572146|H,0,-0.720147
 5729,2.8331613788,0.5094753622|O,0,-2.4488003928,3.356682391,-0.284102
 4102||Version=EM64W-G09RevC.01|State=1-A|HF=-684.2637826|RMSD=3.114e-0
 09|Dipole=-0.6984619,0.1336855,-0.3797562|Quadrupole=2.6191781,2.88343
 9,-5.5026171,2.1557977,-4.1322704,-3.7425034|PG=C01 [X(C7H12N2O4)]||@


 WORK FAITHFULLY FOR EIGHT HOURS A DAY AND DON'T WORRY.
 IN TIME YOU MAY BECOME BOSS AND WORK TWELVE HOURS A DAY
 AND HAVE ALL THE WORRY.
 Job cpu time:  1 days  8 hours 55 minutes 46.0 seconds.
 File lengths (MBytes):  RWF=   1457 Int=      0 D2E=      0 Chk=     41 Scr=      1
 Normal termination of Gaussian 09 at Wed Mar 13 17:06:51 2013.
