 Entering Link 1 = C:\G09W\l1.exe PID=     20912.
  
 Copyright (c) 1988,1990,1992,1993,1995,1998,2003,2009,2011,
            Gaussian, Inc.  All Rights Reserved.
  
 This is part of the Gaussian(R) 09 program.  It is based on
 the Gaussian(R) 03 system (copyright 2003, Gaussian, Inc.),
 the Gaussian(R) 98 system (copyright 1998, Gaussian, Inc.),
 the Gaussian(R) 94 system (copyright 1995, Gaussian, Inc.),
 the Gaussian 92(TM) system (copyright 1992, Gaussian, Inc.),
 the Gaussian 90(TM) system (copyright 1990, Gaussian, Inc.),
 the Gaussian 88(TM) system (copyright 1988, Gaussian, Inc.),
 the Gaussian 86(TM) system (copyright 1986, Carnegie Mellon
 University), and the Gaussian 82(TM) system (copyright 1983,
 Carnegie Mellon University). Gaussian is a federally registered
 trademark of Gaussian, Inc.
  
 This software contains proprietary and confidential information,
 including trade secrets, belonging to Gaussian, Inc.
  
 This software is provided under written license and may be
 used, copied, transmitted, or stored only in accord with that
 written license.
  
 The following legend is applicable only to US Government
 contracts under FAR:
  
                    RESTRICTED RIGHTS LEGEND
  
 Use, reproduction and disclosure by the US Government is
 subject to restrictions as set forth in subparagraphs (a)
 and (c) of the Commercial Computer Software - Restricted
 Rights clause in FAR 52.227-19.
  
 Gaussian, Inc.
 340 Quinnipiac St., Bldg. 40, Wallingford CT 06492
  
  
 ---------------------------------------------------------------
 Warning -- This program may not be used in any manner that
 competes with the business of Gaussian, Inc. or will provide
 assistance to any competitor of Gaussian, Inc.  The licensee
 of this program is prohibited from giving any competitor of
 Gaussian, Inc. access to this program.  By using this program,
 the user acknowledges that Gaussian, Inc. is engaged in the
 business of creating and licensing software in the field of
 computational chemistry and represents and warrants to the
 licensee that it is not a competitor of Gaussian, Inc. and that
 it will not use this program in any manner prohibited above.
 ---------------------------------------------------------------
  

 Cite this work as:
 Gaussian 09, Revision C.01,
 M. J. Frisch, G. W. Trucks, H. B. Schlegel, G. E. Scuseria, 
 M. A. Robb, J. R. Cheeseman, G. Scalmani, V. Barone, B. Mennucci, 
 G. A. Petersson, H. Nakatsuji, M. Caricato, X. Li, H. P. Hratchian, 
 A. F. Izmaylov, J. Bloino, G. Zheng, J. L. Sonnenberg, M. Hada, 
 M. Ehara, K. Toyota, R. Fukuda, J. Hasegawa, M. Ishida, T. Nakajima, 
 Y. Honda, O. Kitao, H. Nakai, T. Vreven, J. A. Montgomery, Jr., 
 J. E. Peralta, F. Ogliaro, M. Bearpark, J. J. Heyd, E. Brothers, 
 K. N. Kudin, V. N. Staroverov, T. Keith, R. Kobayashi, J. Normand, 
 K. Raghavachari, A. Rendell, J. C. Burant, S. S. Iyengar, J. Tomasi, 
 M. Cossi, N. Rega, J. M. Millam, M. Klene, J. E. Knox, J. B. Cross, 
 V. Bakken, C. Adamo, J. Jaramillo, R. Gomperts, R. E. Stratmann, 
 O. Yazyev, A. J. Austin, R. Cammi, C. Pomelli, J. W. Ochterski, 
 R. L. Martin, K. Morokuma, V. G. Zakrzewski, G. A. Voth, 
 P. Salvador, J. J. Dannenberg, S. Dapprich, A. D. Daniels, 
 O. Farkas, J. B. Foresman, J. V. Ortiz, J. Cioslowski, 
 and D. J. Fox, Gaussian, Inc., Wallingford CT, 2010.
 
 ******************************************
 Gaussian 09:  EM64W-G09RevC.01 23-Sep-2011
                14-Mar-2013 
 ******************************************
 %Chk=glutamine.chk
 %Mem=32GB
 %NProcShared=12
 Will use up to   12 processors via shared memory.
 ------------------------------------------------------------
 #p opt=tight m06/cc-pvtz scf=tight integral=(grid=ultrafine)
 ------------------------------------------------------------
 1/7=10,14=-1,18=20,19=15,26=3,38=1/1,3;
 2/9=110,12=2,17=6,18=5,40=1/2;
 3/5=16,6=1,11=2,16=1,25=1,30=1,71=1,74=-54,75=-5/1,2,3;
 4//1;
 5/5=2,32=2,38=5/2;
 6/7=2,8=2,9=2,10=2,28=1/1;
 7//1,2,3,16;
 1/7=10,14=-1,18=20,19=15/3(2);
 2/9=110/2;
 99//99;
 2/9=110/2;
 3/5=16,6=1,11=2,16=1,25=1,30=1,71=1,74=-54,75=-5/1,2,3;
 4/5=5,16=3/1;
 5/5=2,32=2,38=5/2;
 7//1,2,3,16;
 1/7=10,14=-1,18=20,19=15/3(-5);
 2/9=110/2;
 6/7=2,8=2,9=2,10=2,19=2,28=1/1;
 99/9=1/99;
 Leave Link    1 at Thu Mar 14 11:19:21 2013, MaxMem= 4294967296 cpu:       0.0
 (Enter C:\G09W\l101.exe)
 ---------------------
 Geometry optimisation
 ---------------------
 Charge =  0 Multiplicity = 1
 Symbolic Z-Matrix:
 C                     0.40813  -1.59842   0.36058 
 C                    -0.4536   -0.3511    0.63112 
 H                    -1.40765  -0.65218   1.01065 
 H                    -0.58798   0.19399  -0.27977 
 C                     0.25117   0.54504   1.66642 
 H                     1.20521   0.84612   1.28688 
 H                     0.38554  -0.00006   2.5773 
 C                    -0.61057   1.79236   1.93696 
 H                    -1.56462   1.49128   2.31649 
 C                     0.0942    2.68849   2.97226 
 N                     0.36474  -2.25023  -0.9563 
 H                     1.06001  -1.84667  -1.55105 
 H                     0.54383  -3.22833  -0.85017 
 N                    -0.79517   2.54123   0.68555 
 H                    -1.35474   3.35118   0.86123 
 O                     1.28423   3.05164   2.78375 
 O                     1.14944  -2.05968   1.26682 
 N                    -0.62319   3.11969   4.18069 
 H                    -1.09196   3.98421   3.99941 
 C                     0.3351    3.30308   5.28021 
 H                     1.05324   4.04774   5.00696 
 H                    -0.18708   3.61694   6.15982 
 H                     0.83669   2.37804   5.47418 
 C                     0.51552   2.95486   0.16414 
 C                     1.11884   4.30827   0.58354 
 H                     0.78288   4.55878   1.56806 
 H                     2.18664   4.23993   0.57767 
 H                     0.80618   5.06645  -0.1037 
 O                     1.14456   2.20303  -0.62494 
 
 NAtoms=     29 NQM=        0 NQMF=       0 NMMI=     29 NMMIF=      0
                NMic=       0 NMicF=      0.
                    Isotopes and Nuclear Properties:
 (Nuclear quadrupole moments (NQMom) in fm**2, nuclear magnetic moments (NMagM)
  in nuclear magnetons)

  Atom         1           2           3           4           5           6           7           8           9          10
 IAtWgt=          12          12           1           1          12           1           1          12           1          12
 AtmWgt=  12.0000000  12.0000000   1.0078250   1.0078250  12.0000000   1.0078250   1.0078250  12.0000000   1.0078250  12.0000000
 NucSpn=           0           0           1           1           0           1           1           0           1           0
 AtZEff=   0.0000000   0.0000000   0.0000000   0.0000000   0.0000000   0.0000000   0.0000000   0.0000000   0.0000000   0.0000000
 NQMom=    0.0000000   0.0000000   0.0000000   0.0000000   0.0000000   0.0000000   0.0000000   0.0000000   0.0000000   0.0000000
 NMagM=    0.0000000   0.0000000   2.7928460   2.7928460   0.0000000   2.7928460   2.7928460   0.0000000   2.7928460   0.0000000

  Atom        11          12          13          14          15          16          17          18          19          20
 IAtWgt=          14           1           1          14           1          16          16          14           1          12
 AtmWgt=  14.0030740   1.0078250   1.0078250  14.0030740   1.0078250  15.9949146  15.9949146  14.0030740   1.0078250  12.0000000
 NucSpn=           2           1           1           2           1           0           0           2           1           0
 AtZEff=   0.0000000   0.0000000   0.0000000   0.0000000   0.0000000   0.0000000   0.0000000   0.0000000   0.0000000   0.0000000
 NQMom=    2.0440000   0.0000000   0.0000000   2.0440000   0.0000000   0.0000000   0.0000000   2.0440000   0.0000000   0.0000000
 NMagM=    0.4037610   2.7928460   2.7928460   0.4037610   2.7928460   0.0000000   0.0000000   0.4037610   2.7928460   0.0000000

  Atom        21          22          23          24          25          26          27          28          29
 IAtWgt=           1           1           1          12          12           1           1           1          16
 AtmWgt=   1.0078250   1.0078250   1.0078250  12.0000000  12.0000000   1.0078250   1.0078250   1.0078250  15.9949146
 NucSpn=           1           1           1           0           0           1           1           1           0
 AtZEff=   0.0000000   0.0000000   0.0000000   0.0000000   0.0000000   0.0000000   0.0000000   0.0000000   0.0000000
 NQMom=    0.0000000   0.0000000   0.0000000   0.0000000   0.0000000   0.0000000   0.0000000   0.0000000   0.0000000
 NMagM=    2.7928460   2.7928460   2.7928460   0.0000000   0.0000000   2.7928460   2.7928460   2.7928460   0.0000000
 Leave Link  101 at Thu Mar 14 11:19:22 2013, MaxMem= 4294967296 cpu:       1.0
 (Enter C:\G09W\l103.exe)

 GradGradGradGradGradGradGradGradGradGradGradGradGradGradGradGradGradGrad
 Berny optimization.
 Initialization pass.
                           ----------------------------
                           !    Initial Parameters    !
                           ! (Angstroms and Degrees)  !
 --------------------------                            --------------------------
 ! Name  Definition              Value          Derivative Info.                !
 --------------------------------------------------------------------------------
 ! R1    R(1,2)                  1.54           estimate D2E/DX2                !
 ! R2    R(1,11)                 1.47           estimate D2E/DX2                !
 ! R3    R(1,17)                 1.2584         estimate D2E/DX2                !
 ! R4    R(2,3)                  1.07           estimate D2E/DX2                !
 ! R5    R(2,4)                  1.07           estimate D2E/DX2                !
 ! R6    R(2,5)                  1.54           estimate D2E/DX2                !
 ! R7    R(5,6)                  1.07           estimate D2E/DX2                !
 ! R8    R(5,7)                  1.07           estimate D2E/DX2                !
 ! R9    R(5,8)                  1.54           estimate D2E/DX2                !
 ! R10   R(8,9)                  1.07           estimate D2E/DX2                !
 ! R11   R(8,10)                 1.54           estimate D2E/DX2                !
 ! R12   R(8,14)                 1.47           estimate D2E/DX2                !
 ! R13   R(10,16)                1.2584         estimate D2E/DX2                !
 ! R14   R(10,18)                1.47           estimate D2E/DX2                !
 ! R15   R(11,12)                1.0            estimate D2E/DX2                !
 ! R16   R(11,13)                1.0            estimate D2E/DX2                !
 ! R17   R(14,15)                1.0            estimate D2E/DX2                !
 ! R18   R(14,24)                1.47           estimate D2E/DX2                !
 ! R19   R(18,19)                1.0            estimate D2E/DX2                !
 ! R20   R(18,20)                1.47           estimate D2E/DX2                !
 ! R21   R(20,21)                1.07           estimate D2E/DX2                !
 ! R22   R(20,22)                1.07           estimate D2E/DX2                !
 ! R23   R(20,23)                1.07           estimate D2E/DX2                !
 ! R24   R(24,25)                1.54           estimate D2E/DX2                !
 ! R25   R(24,29)                1.2584         estimate D2E/DX2                !
 ! R26   R(25,26)                1.07           estimate D2E/DX2                !
 ! R27   R(25,27)                1.07           estimate D2E/DX2                !
 ! R28   R(25,28)                1.07           estimate D2E/DX2                !
 ! A1    A(2,1,11)             120.0            estimate D2E/DX2                !
 ! A2    A(2,1,17)             120.0            estimate D2E/DX2                !
 ! A3    A(11,1,17)            120.0            estimate D2E/DX2                !
 ! A4    A(1,2,3)              109.4712         estimate D2E/DX2                !
 ! A5    A(1,2,4)              109.4712         estimate D2E/DX2                !
 ! A6    A(1,2,5)              109.4712         estimate D2E/DX2                !
 ! A7    A(3,2,4)              109.4712         estimate D2E/DX2                !
 ! A8    A(3,2,5)              109.4712         estimate D2E/DX2                !
 ! A9    A(4,2,5)              109.4712         estimate D2E/DX2                !
 ! A10   A(2,5,6)              109.4712         estimate D2E/DX2                !
 ! A11   A(2,5,7)              109.4712         estimate D2E/DX2                !
 ! A12   A(2,5,8)              109.4712         estimate D2E/DX2                !
 ! A13   A(6,5,7)              109.4712         estimate D2E/DX2                !
 ! A14   A(6,5,8)              109.4712         estimate D2E/DX2                !
 ! A15   A(7,5,8)              109.4712         estimate D2E/DX2                !
 ! A16   A(5,8,9)              109.4712         estimate D2E/DX2                !
 ! A17   A(5,8,10)             109.4712         estimate D2E/DX2                !
 ! A18   A(5,8,14)             109.4712         estimate D2E/DX2                !
 ! A19   A(9,8,10)             109.4712         estimate D2E/DX2                !
 ! A20   A(9,8,14)             109.4712         estimate D2E/DX2                !
 ! A21   A(10,8,14)            109.4712         estimate D2E/DX2                !
 ! A22   A(8,10,16)            120.0            estimate D2E/DX2                !
 ! A23   A(8,10,18)            120.0            estimate D2E/DX2                !
 ! A24   A(16,10,18)           120.0            estimate D2E/DX2                !
 ! A25   A(1,11,12)            109.4712         estimate D2E/DX2                !
 ! A26   A(1,11,13)            109.4712         estimate D2E/DX2                !
 ! A27   A(12,11,13)           109.4712         estimate D2E/DX2                !
 ! A28   A(8,14,15)            109.4712         estimate D2E/DX2                !
 ! A29   A(8,14,24)            109.4712         estimate D2E/DX2                !
 ! A30   A(15,14,24)           109.4712         estimate D2E/DX2                !
 ! A31   A(10,18,19)           109.4712         estimate D2E/DX2                !
 ! A32   A(10,18,20)           109.4712         estimate D2E/DX2                !
 ! A33   A(19,18,20)           109.4712         estimate D2E/DX2                !
 ! A34   A(18,20,21)           109.4712         estimate D2E/DX2                !
 ! A35   A(18,20,22)           109.4712         estimate D2E/DX2                !
 ! A36   A(18,20,23)           109.4712         estimate D2E/DX2                !
 ! A37   A(21,20,22)           109.4712         estimate D2E/DX2                !
 ! A38   A(21,20,23)           109.4712         estimate D2E/DX2                !
 ! A39   A(22,20,23)           109.4712         estimate D2E/DX2                !
 ! A40   A(14,24,25)           120.0            estimate D2E/DX2                !
 ! A41   A(14,24,29)           120.0            estimate D2E/DX2                !
 ! A42   A(25,24,29)           120.0            estimate D2E/DX2                !
 ! A43   A(24,25,26)           109.4712         estimate D2E/DX2                !
 ! A44   A(24,25,27)           109.4712         estimate D2E/DX2                !
 ! A45   A(24,25,28)           109.4712         estimate D2E/DX2                !
 ! A46   A(26,25,27)           109.4712         estimate D2E/DX2                !
 ! A47   A(26,25,28)           109.4712         estimate D2E/DX2                !
 ! A48   A(27,25,28)           109.4712         estimate D2E/DX2                !
 ! D1    D(11,1,2,3)            90.0            estimate D2E/DX2                !
 ! D2    D(11,1,2,4)           -30.0            estimate D2E/DX2                !
 ! D3    D(11,1,2,5)          -150.0            estimate D2E/DX2                !
 ! D4    D(17,1,2,3)           -90.0            estimate D2E/DX2                !
 ! D5    D(17,1,2,4)           150.0            estimate D2E/DX2                !
 ! D6    D(17,1,2,5)            30.0            estimate D2E/DX2                !
 ! D7    D(2,1,11,12)           90.0            estimate D2E/DX2                !
 ! D8    D(2,1,11,13)         -150.0            estimate D2E/DX2                !
 ! D9    D(17,1,11,12)         -90.0            estimate D2E/DX2                !
 ! D10   D(17,1,11,13)          30.0            estimate D2E/DX2                !
 ! D11   D(1,2,5,6)             60.0            estimate D2E/DX2                !
 ! D12   D(1,2,5,7)            -60.0            estimate D2E/DX2                !
 ! D13   D(1,2,5,8)            180.0            estimate D2E/DX2                !
 ! D14   D(3,2,5,6)            180.0            estimate D2E/DX2                !
 ! D15   D(3,2,5,7)             60.0            estimate D2E/DX2                !
 ! D16   D(3,2,5,8)            -60.0            estimate D2E/DX2                !
 ! D17   D(4,2,5,6)            -60.0            estimate D2E/DX2                !
 ! D18   D(4,2,5,7)           -180.0            estimate D2E/DX2                !
 ! D19   D(4,2,5,8)             60.0            estimate D2E/DX2                !
 ! D20   D(2,5,8,9)             60.0            estimate D2E/DX2                !
 ! D21   D(2,5,8,10)           180.0            estimate D2E/DX2                !
 ! D22   D(2,5,8,14)           -60.0            estimate D2E/DX2                !
 ! D23   D(6,5,8,9)            180.0            estimate D2E/DX2                !
 ! D24   D(6,5,8,10)           -60.0            estimate D2E/DX2                !
 ! D25   D(6,5,8,14)            60.0            estimate D2E/DX2                !
 ! D26   D(7,5,8,9)            -60.0            estimate D2E/DX2                !
 ! D27   D(7,5,8,10)            60.0            estimate D2E/DX2                !
 ! D28   D(7,5,8,14)          -180.0            estimate D2E/DX2                !
 ! D29   D(5,8,10,16)           53.26           estimate D2E/DX2                !
 ! D30   D(5,8,10,18)         -126.74           estimate D2E/DX2                !
 ! D31   D(9,8,10,16)          173.26           estimate D2E/DX2                !
 ! D32   D(9,8,10,18)           -6.74           estimate D2E/DX2                !
 ! D33   D(14,8,10,16)         -66.74           estimate D2E/DX2                !
 ! D34   D(14,8,10,18)         113.26           estimate D2E/DX2                !
 ! D35   D(5,8,14,15)          180.0            estimate D2E/DX2                !
 ! D36   D(5,8,14,24)          -60.0            estimate D2E/DX2                !
 ! D37   D(9,8,14,15)           60.0            estimate D2E/DX2                !
 ! D38   D(9,8,14,24)          180.0            estimate D2E/DX2                !
 ! D39   D(10,8,14,15)         -60.0            estimate D2E/DX2                !
 ! D40   D(10,8,14,24)          60.0            estimate D2E/DX2                !
 ! D41   D(8,10,18,19)         -90.0            estimate D2E/DX2                !
 ! D42   D(8,10,18,20)         150.0            estimate D2E/DX2                !
 ! D43   D(16,10,18,19)         90.0            estimate D2E/DX2                !
 ! D44   D(16,10,18,20)        -30.0            estimate D2E/DX2                !
 ! D45   D(8,14,24,25)         -90.0            estimate D2E/DX2                !
 ! D46   D(8,14,24,29)          90.0            estimate D2E/DX2                !
 ! D47   D(15,14,24,25)         30.0            estimate D2E/DX2                !
 ! D48   D(15,14,24,29)       -150.0            estimate D2E/DX2                !
 ! D49   D(10,18,20,21)         60.0            estimate D2E/DX2                !
 ! D50   D(10,18,20,22)        180.0            estimate D2E/DX2                !
 ! D51   D(10,18,20,23)        -60.0            estimate D2E/DX2                !
 ! D52   D(19,18,20,21)        -60.0            estimate D2E/DX2                !
 ! D53   D(19,18,20,22)         60.0            estimate D2E/DX2                !
 ! D54   D(19,18,20,23)        180.0            estimate D2E/DX2                !
 ! D55   D(14,24,25,26)         30.0            estimate D2E/DX2                !
 ! D56   D(14,24,25,27)        150.0            estimate D2E/DX2                !
 ! D57   D(14,24,25,28)        -90.0            estimate D2E/DX2                !
 ! D58   D(29,24,25,26)       -150.0            estimate D2E/DX2                !
 ! D59   D(29,24,25,27)        -30.0            estimate D2E/DX2                !
 ! D60   D(29,24,25,28)         90.0            estimate D2E/DX2                !
 --------------------------------------------------------------------------------
 Trust Radius=3.00D-01 FncErr=1.00D-07 GrdErr=1.00D-06
 Number of steps in this run=    146 maximum allowed number of steps=    174.
 GradGradGradGradGradGradGradGradGradGradGradGradGradGradGradGradGradGrad

 Leave Link  103 at Thu Mar 14 11:19:22 2013, MaxMem= 4294967296 cpu:       0.0
 (Enter C:\G09W\l202.exe)
                          Input orientation:                          
 ---------------------------------------------------------------------
 Center     Atomic      Atomic             Coordinates (Angstroms)
 Number     Number       Type             X           Y           Z
 ---------------------------------------------------------------------
      1          6           0        0.408132   -1.598422    0.360576
      2          6           0       -0.453604   -0.351098    0.631118
      3          1           0       -1.407650   -0.652182    1.010650
      4          1           0       -0.587976    0.193995   -0.279771
      5          6           0        0.251167    0.545036    1.666415
      6          1           0        1.205213    0.846120    1.286883
      7          1           0        0.385539   -0.000057    2.577304
      8          6           0       -0.610569    1.792360    1.936957
      9          1           0       -1.564615    1.491276    2.316490
     10          6           0        0.094202    2.688494    2.972255
     11          7           0        0.364742   -2.250234   -0.956298
     12          1           0        1.060011   -1.846667   -1.551054
     13          1           0        0.543830   -3.228326   -0.850167
     14          7           0       -0.795174    2.541225    0.685550
     15          1           0       -1.354743    3.351176    0.861226
     16          8           0        1.284229    3.051638    2.783754
     17          8           0        1.149439   -2.059677    1.266820
     18          7           0       -0.623192    3.119688    4.180691
     19          1           0       -1.091962    3.984205    3.999409
     20          6           0        0.335102    3.303077    5.280210
     21          1           0        1.053236    4.047736    5.006958
     22          1           0       -0.187082    3.616939    6.159820
     23          1           0        0.836687    2.378043    5.474182
     24          6           0        0.515524    2.954864    0.164136
     25          6           0        1.118837    4.308272    0.583540
     26          1           0        0.782882    4.558781    1.568060
     27          1           0        2.186637    4.239935    0.577668
     28          1           0        0.806178    5.066455   -0.103703
     29          8           0        1.144561    2.203033   -0.624936
 ---------------------------------------------------------------------
                    Distance matrix (angstroms):
                    1          2          3          4          5
     1  C    0.000000
     2  C    1.540000   0.000000
     3  H    2.148263   1.070000   0.000000
     4  H    2.148263   1.070000   1.747303   0.000000
     5  C    2.514809   1.540000   2.148263   2.148263   0.000000
     6  H    2.732978   2.148263   3.024610   2.468846   1.070000
     7  H    2.732978   2.148263   2.468846   3.024610   1.070000
     8  C    3.875582   2.514809   2.732978   2.732978   1.540000
     9  H    4.154945   2.732978   2.514809   3.062243   2.148263
    10  C    5.029619   3.875582   4.154945   4.154945   2.514809
    11  N    1.470000   2.606971   3.092577   2.709173   3.834718
    12  H    2.034920   3.047890   3.752130   2.914846   4.089814
    13  H    2.034920   3.386373   3.729268   3.649468   4.545008
    14  N    4.323220   2.912931   3.267823   2.546422   2.457987
    15  H    5.277964   3.817307   4.006495   3.443487   3.331921
    16  O    5.316239   4.385489   4.910030   4.588732   2.932357
    17  O    1.258400   2.427572   2.930080   3.238764   2.784079
    18  N    6.157716   4.967352   4.989142   5.334477   3.703366
    19  H    6.830602   5.527001   5.525253   5.738561   4.367464
    20  C    6.944985   5.965661   6.075393   6.436758   4.546795
    21  H    7.340580   6.385004   6.641962   6.744954   4.906266
    22  H    7.822116   6.810499   6.799200   7.303807   5.460708
    23  H    6.491910   5.706867   5.843152   6.317254   4.266360
    24  C    4.558786   3.476588   4.174442   3.006188   2.852017
    25  C    5.953473   4.917780   5.583159   4.537157   4.010912
    26  H    6.285666   5.149143   5.680077   4.934075   4.050005
    27  H    6.107096   5.296349   6.085982   4.980293   4.310881
    28  H    6.692875   5.610427   6.232626   5.071049   4.887186
    29  O    3.995575   3.264260   4.164274   2.675268   2.966041
                    6          7          8          9         10
     6  H    0.000000
     7  H    1.747303   0.000000
     8  C    2.148263   2.148263   0.000000
     9  H    3.024610   2.468846   1.070000   0.000000
    10  C    2.732978   2.732978   1.540000   2.148263   0.000000
    11  N    3.914801   4.189282   5.066037   5.332210   6.316467
    12  H    3.914853   4.572551   5.310328   5.743555   6.477715
    13  H    4.648174   4.711087   5.857302   6.062005   7.058458
    14  N    2.690081   3.380966   1.470000   2.086720   2.457987
    15  H    3.606919   4.147803   2.034920   2.370879   2.644813
    16  O    2.666679   3.187962   2.427572   3.281612   1.258400
    17  O    2.906401   2.557918   4.287762   4.590987   5.154334
    18  N    4.109295   3.649821   2.606971   2.648254   1.470000
    19  H    4.741560   4.481042   3.047890   3.044719   2.034920
    20  C    4.768688   4.268364   3.788654   3.959190   2.400500
    21  H    4.910438   4.767983   4.156906   4.541723   2.628174
    22  H    5.775936   5.122984   4.619632   4.602958   3.331921
    23  H    4.473932   3.775022   3.866462   4.064926   2.628174
    24  C    2.486571   3.817307   2.400500   3.331921   2.852017
    25  C    3.533928   4.803594   3.339521   4.259049   3.062600
    26  H    3.747169   4.686092   3.119436   3.934524   2.438036
    27  H    3.603354   5.021954   3.957607   4.964929   3.538262
    28  H    4.461411   5.747545   4.109886   4.925434   3.952610
    29  O    2.345196   3.960311   3.132481   4.061800   3.778718
                   11         12         13         14         15
    11  N    0.000000
    12  H    1.000000   0.000000
    13  H    1.000000   1.632993   0.000000
    14  N    5.196071   5.262861   6.118748   0.000000
    15  H    6.134804   6.218337   7.058562   1.000000   0.000000
    16  O    6.553113   6.544786   7.293252   2.997816   3.278721
    17  O    2.365231   2.827328   2.492817   5.028687   5.976016
    18  N    7.496715   7.768575   8.183444   3.546859   3.406993
    19  H    8.096250   8.332929   8.843914   3.626560   3.212160
    20  C    8.350699   8.585541   8.960151   4.792582   4.731311
    21  H    8.700510   8.817684   9.354490   4.935662   4.844652
    22  H    9.239446   9.532251   9.825060   5.612002   5.432233
    23  H    7.936923   8.200730   8.456626   5.061679   5.198915
    24  C    5.326458   5.127674   6.265896   1.470000   2.034920
    25  C    6.778921   6.514847   7.693274   2.606971   2.666785
    26  H    7.273920   7.129897   8.157451   2.709173   2.554871
    27  H    6.913368   6.545798   7.778975   3.433431   3.662195
    28  H    7.379412   7.067568   8.332432   3.092577   2.922816
    29  O    4.533157   4.155107   5.469120   2.365231   3.126249
                   16         17         18         19         20
    16  O    0.000000
    17  O    5.333366   0.000000
    18  N    2.365231   6.201506   0.000000
    19  H    2.827328   7.001388   1.000000   0.000000
    20  C    2.682602   6.747560   1.470000   2.034920   0.000000
    21  H    2.447081   7.162288   2.086720   2.370879   1.070000
    22  H    3.725875   7.612601   2.086720   2.370879   1.070000
    23  H    2.809346   6.123157   2.086720   2.911082   1.070000
    24  C    2.731789   5.173333   4.178105   4.284026   5.131084
    25  C    2.539178   6.404575   4.169759   4.081766   4.866556
    26  H    2.000185   6.635442   3.297556   3.123562   3.944281
    27  H    2.663307   6.421512   4.704452   4.745832   5.140018
    28  H    3.553228   7.264841   4.918235   4.648627   5.684886
    29  O    3.515509   4.663632   5.201852   5.436836   6.061029
                   21         22         23         24         25
    21  H    0.000000
    22  H    1.747303   0.000000
    23  H    1.747303   1.747303   0.000000
    24  C    4.993639   6.072909   5.350930   0.000000
    25  C    4.431569   5.768731   5.265336   1.540000   0.000000
    26  H    3.487159   4.786664   4.473958   2.148263   1.070000
    27  H    4.576040   6.097794   5.409700   2.148263   1.070000
    28  H    5.217056   6.505335   6.192034   2.148263   1.070000
    29  O    5.927014   7.057288   6.109391   1.258400   2.427572
                   26         27         28         29
    26  H    0.000000
    27  H    1.747303   0.000000
    28  H    1.747303   1.747303   0.000000
    29  O    3.238764   2.584792   2.930080   0.000000
 Stoichiometry    C8H15N3O3
 Framework group  C1[X(C8H15N3O3)]
 Deg. of freedom    81
 Full point group                 C1      NOp   1
 Largest Abelian subgroup         C1      NOp   1
 Largest concise Abelian subgroup C1      NOp   1
                         Standard orientation:                         
 ---------------------------------------------------------------------
 Center     Atomic      Atomic             Coordinates (Angstroms)
 Number     Number       Type             X           Y           Z
 ---------------------------------------------------------------------
      1          6           0       -3.198198   -0.754917   -0.089717
      2          6           0       -1.985194   -0.395246    0.788269
      3          1           0       -1.989843   -1.002674    1.669126
      4          1           0       -2.039544    0.636580    1.066264
      5          6           0       -0.687276   -0.646390   -0.001627
      6          1           0       -0.682627   -0.038963   -0.882484
      7          1           0       -0.632926   -1.678216   -0.279622
      8          6           0        0.525728   -0.286719    0.876358
      9          1           0        0.521079   -0.894147    1.757216
     10          6           0        1.823646   -0.537864    0.086463
     11          7           0       -4.473768   -0.047670    0.093652
     12          1           0       -4.496113    0.758243   -0.497959
     13          1           0       -5.230026   -0.657065   -0.144490
     14          7           0        0.451060    1.130836    1.258277
     15          1           0        1.238725    1.364389    1.828397
     16          8           0        1.978718   -0.020231   -1.050014
     17          8           0       -3.097438   -1.654261   -0.964129
     18          7           0        2.881420   -1.382266    0.660047
     19          1           0        3.511309   -0.813920    1.189408
     20          6           0        3.616766   -2.050165   -0.423501
     21          1           0        4.056054   -1.313560   -1.063297
     22          1           0        4.386711   -2.664798   -0.005994
     23          1           0        2.942786   -2.658296   -0.989917
     24          6           0        0.457446    1.965340    0.048127
     25          6           0        1.792409    2.460016   -0.539045
     26          1           0        2.562402    1.749243   -0.322680
     27          1           0        1.696675    2.570574   -1.599003
     28          1           0        2.045689    3.403933   -0.103420
     29          8           0       -0.627942    2.275500   -0.508024
 ---------------------------------------------------------------------
 Rotational constants (GHZ):      0.9906136      0.3968274      0.3212665
 Leave Link  202 at Thu Mar 14 11:19:22 2013, MaxMem= 4294967296 cpu:       0.0
 (Enter C:\G09W\l301.exe)
 Standard basis: CC-pVTZ (5D, 7F)
 Ernie: Thresh=  0.10000D-02 Tol=  0.10000D-05 Strict=F.
 Ernie:  42 primitive shells out of 484 were deleted.
 There are   630 symmetry adapted basis functions of A   symmetry.
 Integral buffers will be    131072 words long.
 Raffenetti 2 integral format.
 Two-electron integral symmetry is turned on.
   630 basis functions,   983 primitive gaussians,   715 cartesian basis functions
    54 alpha electrons       54 beta electrons
       nuclear repulsion energy       944.3050895180 Hartrees.
 IExCor= 4235 DFT=T Ex+Corr=M06 ExCW=0 ScaHFX=  0.270000
 ScaDFX=  1.000000  1.000000  1.000000  1.000000 ScalE2=  1.000000  1.000000
 IRadAn=      5 IRanWt=     -1 IRanGd=            0 ICorTp=0
 NAtoms=   29 NActive=   29 NUniq=   29 SFac= 1.00D+00 NAtFMM=   60 NAOKFM=F Big=F
 Leave Link  301 at Thu Mar 14 11:19:23 2013, MaxMem= 4294967296 cpu:       1.0
 (Enter C:\G09W\l302.exe)
 NPDir=0 NMtPBC=     1 NCelOv=     1 NCel=       1 NClECP=     1 NCelD=      1
         NCelK=      1 NCelE2=     1 NClLst=     1 CellRange=     0.0.
 One-electron integrals computed using PRISM.
 NBasis=   630 RedAO= T  NBF=   630
 NBsUse=   630 1.00D-06 NBFU=   630
 Precomputing XC quadrature grid using
 IXCGrd= 2 IRadAn=           5 IRanWt=          -1 IRanGd=           0 AccXCQ= 0.00D+00.
 NRdTot=    2443 NPtTot=      658372 NUsed=      675863 NTot=      675895
 NSgBfM=   714   714   714   714   714 NAtAll=    29    29.
 Leave Link  302 at Thu Mar 14 11:19:28 2013, MaxMem= 4294967296 cpu:       5.0
 (Enter C:\G09W\l303.exe)
 DipDrv:  MaxL=1.
 Leave Link  303 at Thu Mar 14 11:19:29 2013, MaxMem= 4294967296 cpu:       1.0
 (Enter C:\G09W\l401.exe)
 Harris functional with IExCor= 1009 diagonalized for initial guess.
 ExpMin= 1.03D-01 ExpMax= 1.53D+04 ExpMxC= 5.22D+02 IAcc=3 IRadAn=         5 AccDes= 0.00D+00
 HarFok:  IExCor= 1009 AccDes= 0.00D+00 IRadAn=         5 IDoV= 1
 ScaDFX=  1.000000  1.000000  1.000000  1.000000
 FoFCou: FMM=F IPFlag=           0 FMFlag=      100000 FMFlg1=           0
         NFxFlg=           0 DoJE=T BraDBF=F KetDBF=T FulRan=T
         Omega=  0.000000  0.000000  1.000000  0.000000  0.000000 ICntrl=     500 IOpCl=  0
         NMat0=    1 NMatS0=    1 NMatT0=    0 NMatD0=    1 NMtDS0=    0 NMtDT0=    0
         I1Cent=           4 NGrid=           0.
 Petite list used in FoFCou.
 Harris En= -703.412929451198    
 Initial guess orbital symmetries:
       Occupied  (A) (A) (A) (A) (A) (A) (A) (A) (A) (A) (A) (A)
                 (A) (A) (A) (A) (A) (A) (A) (A) (A) (A) (A) (A)
                 (A) (A) (A) (A) (A) (A) (A) (A) (A) (A) (A) (A)
                 (A) (A) (A) (A) (A) (A) (A) (A) (A) (A) (A) (A)
                 (A) (A) (A) (A) (A) (A)
       Virtual   (A) (A) (A) (A) (A) (A) (A) (A) (A) (A) (A) (A)
                 (A) (A) (A) (A) (A) (A) (A) (A) (A) (A) (A) (A)
                 (A) (A) (A) (A) (A) (A) (A) (A) (A) (A) (A) (A)
                 (A) (A) (A) (A) (A) (A) (A) (A) (A) (A) (A) (A)
                 (A) (A) (A) (A) (A) (A) (A) (A) (A) (A) (A) (A)
                 (A) (A) (A) (A) (A) (A) (A) (A) (A) (A) (A) (A)
                 (A) (A) (A) (A) (A) (A) (A) (A) (A) (A) (A) (A)
                 (A) (A) (A) (A) (A) (A) (A) (A) (A) (A) (A) (A)
                 (A) (A) (A) (A) (A) (A) (A) (A) (A) (A) (A) (A)
                 (A) (A) (A) (A) (A) (A) (A) (A) (A) (A) (A) (A)
                 (A) (A) (A) (A) (A) (A) (A) (A) (A) (A) (A) (A)
                 (A) (A) (A) (A) (A) (A) (A) (A) (A) (A) (A) (A)
                 (A) (A) (A) (A) (A) (A) (A) (A) (A) (A) (A) (A)
                 (A) (A) (A) (A) (A) (A) (A) (A) (A) (A) (A) (A)
                 (A) (A) (A) (A) (A) (A) (A) (A) (A) (A) (A) (A)
                 (A) (A) (A) (A) (A) (A) (A) (A) (A) (A) (A) (A)
                 (A) (A) (A) (A) (A) (A) (A) (A) (A) (A) (A) (A)
                 (A) (A) (A) (A) (A) (A) (A) (A) (A) (A) (A) (A)
                 (A) (A) (A) (A) (A) (A) (A) (A) (A) (A) (A) (A)
                 (A) (A) (A) (A) (A) (A) (A) (A) (A) (A) (A) (A)
                 (A) (A) (A) (A) (A) (A) (A) (A) (A) (A) (A) (A)
                 (A) (A) (A) (A) (A) (A) (A) (A) (A) (A) (A) (A)
                 (A) (A) (A) (A) (A) (A) (A) (A) (A) (A) (A) (A)
                 (A) (A) (A) (A) (A) (A) (A) (A) (A) (A) (A) (A)
                 (A) (A) (A) (A) (A) (A) (A) (A) (A) (A) (A) (A)
                 (A) (A) (A) (A) (A) (A) (A) (A) (A) (A) (A) (A)
                 (A) (A) (A) (A) (A) (A) (A) (A) (A) (A) (A) (A)
                 (A) (A) (A) (A) (A) (A) (A) (A) (A) (A) (A) (A)
                 (A) (A) (A) (A) (A) (A) (A) (A) (A) (A) (A) (A)
                 (A) (A) (A) (A) (A) (A) (A) (A) (A) (A) (A) (A)
                 (A) (A) (A) (A) (A) (A) (A) (A) (A) (A) (A) (A)
                 (A) (A) (A) (A) (A) (A) (A) (A) (A) (A) (A) (A)
                 (A) (A) (A) (A) (A) (A) (A) (A) (A) (A) (A) (A)
                 (A) (A) (A) (A) (A) (A) (A) (A) (A) (A) (A) (A)
                 (A) (A) (A) (A) (A) (A) (A) (A) (A) (A) (A) (A)
                 (A) (A) (A) (A) (A) (A) (A) (A) (A) (A) (A) (A)
                 (A) (A) (A) (A) (A) (A) (A) (A) (A) (A) (A) (A)
                 (A) (A) (A) (A) (A) (A) (A) (A) (A) (A) (A) (A)
                 (A) (A) (A) (A) (A) (A) (A) (A) (A) (A) (A) (A)
                 (A) (A) (A) (A) (A) (A) (A) (A) (A) (A) (A) (A)
                 (A) (A) (A) (A) (A) (A) (A) (A) (A) (A) (A) (A)
                 (A) (A) (A) (A) (A) (A) (A) (A) (A) (A) (A) (A)
                 (A) (A) (A) (A) (A) (A) (A) (A) (A) (A) (A) (A)
                 (A) (A) (A) (A) (A) (A) (A) (A) (A) (A) (A) (A)
                 (A) (A) (A) (A) (A) (A) (A) (A) (A) (A) (A) (A)
                 (A) (A) (A) (A) (A) (A) (A) (A) (A) (A) (A) (A)
                 (A) (A) (A) (A) (A) (A) (A) (A) (A) (A) (A) (A)
                 (A) (A) (A) (A) (A) (A) (A) (A) (A) (A) (A) (A)
 The electronic state of the initial guess is 1-A.
 Leave Link  401 at Thu Mar 14 11:19:55 2013, MaxMem= 4294967296 cpu:      26.0
 (Enter C:\G09W\l502.exe)
 Closed shell SCF:
 Requested convergence on RMS density matrix=1.00D-08 within 128 cycles.
 Requested convergence on MAX density matrix=1.00D-06.
 Requested convergence on             energy=1.00D-06.
 No special actions if energy rises.
 Using DIIS extrapolation, IDIIS=  1040.
 Integral symmetry usage will be decided dynamically.
       675589 words used for storage of precomputed grid.
 IEnd=     2241198 IEndB=     2241198 NGot=  4294967296 MDV=  4293254679
 LenX=  4293254679 LenY=  4292742739
 Fock matrices will be formed incrementally for  20 cycles.
 Integral accuracy reduced to 1.0D-05 until final iterations.

 Cycle   1  Pass 0  IDiag  1:
 FoFCou: FMM=F IPFlag=           0 FMFlag=      100000 FMFlg1=           0
         NFxFlg=           0 DoJE=F BraDBF=F KetDBF=F FulRan=T
         Omega=  0.000000  0.000000  1.000000  0.000000  0.000000 ICntrl=       0 IOpCl=  0
         NMat0=    1 NMatS0=    1 NMatT0=    0 NMatD0=    1 NMtDS0=    0 NMtDT0=    0
         I1Cent=           0 NGrid=           0.
 Symmetry not used in FoFCou.
 E= -703.170643800039    
 DIIS: error= 1.63D-02 at cycle   1 NSaved=   1.
 NSaved= 1 IEnMin= 1 EnMin= -703.170643800039     IErMin= 1 ErrMin= 1.63D-02
 ErrMax= 1.63D-02 EMaxC= 1.00D-01 BMatC= 4.69D-01 BMatP= 4.69D-01
 IDIUse=3 WtCom= 8.37D-01 WtEn= 1.63D-01
 Coeff-Com:  0.100D+01
 Coeff-En:   0.100D+01
 Coeff:      0.100D+01
 Gap=     0.182 Goal=   None    Shift=    0.000
 GapD=    0.182 DampG=1.000 DampE=0.500 DampFc=0.5000 IDamp=-1.
 Damping current iteration by 5.00D-01
 RMSDP=2.16D-03 MaxDP=2.24D-01              OVMax= 2.03D-01

 Cycle   2  Pass 0  IDiag  1:
 RMSU=  7.64D-04    CP:  1.00D+00
 E= -703.276210261789     Delta-E=       -0.105566461750 Rises=F Damp=T
 DIIS: error= 6.11D-03 at cycle   2 NSaved=   2.
 NSaved= 2 IEnMin= 2 EnMin= -703.276210261789     IErMin= 2 ErrMin= 6.11D-03
 ErrMax= 6.11D-03 EMaxC= 1.00D-01 BMatC= 7.16D-02 BMatP= 4.69D-01
 IDIUse=3 WtCom= 9.39D-01 WtEn= 6.11D-02
 Coeff-Com:  0.223D+00 0.777D+00
 Coeff-En:   0.344D+00 0.656D+00
 Coeff:      0.231D+00 0.769D+00
 Gap=     0.214 Goal=   None    Shift=    0.000
 RMSDP=5.83D-04 MaxDP=3.21D-02 DE=-1.06D-01 OVMax= 1.70D-01

 Cycle   3  Pass 0  IDiag  1:
 RMSU=  3.82D-04    CP:  1.00D+00  7.98D-01
 E= -703.502579576074     Delta-E=       -0.226369314284 Rises=F Damp=F
 DIIS: error= 6.85D-03 at cycle   3 NSaved=   3.
 NSaved= 3 IEnMin= 3 EnMin= -703.502579576074     IErMin= 2 ErrMin= 6.11D-03
 ErrMax= 6.85D-03 EMaxC= 1.00D-01 BMatC= 6.46D-02 BMatP= 7.16D-02
 IDIUse=3 WtCom= 9.32D-01 WtEn= 6.85D-02
 Coeff-Com:  0.793D-01 0.485D+00 0.435D+00
 Coeff-En:   0.000D+00 0.000D+00 0.100D+01
 Coeff:      0.739D-01 0.452D+00 0.474D+00
 Gap=     0.227 Goal=   None    Shift=    0.000
 RMSDP=3.28D-04 MaxDP=1.52D-02 DE=-2.26D-01 OVMax= 5.03D-02

 Cycle   4  Pass 0  IDiag  1:
 RMSU=  2.01D-04    CP:  1.00D+00  8.35D-01  7.09D-01
 E= -703.549603118675     Delta-E=       -0.047023542602 Rises=F Damp=F
 DIIS: error= 2.15D-03 at cycle   4 NSaved=   4.
 NSaved= 4 IEnMin= 4 EnMin= -703.549603118675     IErMin= 4 ErrMin= 2.15D-03
 ErrMax= 2.15D-03 EMaxC= 1.00D-01 BMatC= 6.16D-03 BMatP= 6.46D-02
 IDIUse=3 WtCom= 9.79D-01 WtEn= 2.15D-02
 Coeff-Com:  0.107D-01 0.934D-01 0.255D+00 0.641D+00
 Coeff-En:   0.000D+00 0.000D+00 0.752D-01 0.925D+00
 Coeff:      0.104D-01 0.914D-01 0.251D+00 0.647D+00
 Gap=     0.207 Goal=   None    Shift=    0.000
 RMSDP=8.87D-05 MaxDP=4.29D-03 DE=-4.70D-02 OVMax= 1.40D-02

 Cycle   5  Pass 0  IDiag  1:
 RMSU=  3.98D-05    CP:  1.00D+00  8.25D-01  7.93D-01  8.24D-01
 E= -703.553948669476     Delta-E=       -0.004345550801 Rises=F Damp=F
 DIIS: error= 4.21D-04 at cycle   5 NSaved=   5.
 NSaved= 5 IEnMin= 5 EnMin= -703.553948669476     IErMin= 5 ErrMin= 4.21D-04
 ErrMax= 4.21D-04 EMaxC= 1.00D-01 BMatC= 3.74D-04 BMatP= 6.16D-03
 IDIUse=3 WtCom= 9.96D-01 WtEn= 4.21D-03
 Coeff-Com:  0.753D-03 0.116D-01 0.931D-01 0.322D+00 0.573D+00
 Coeff-En:   0.000D+00 0.000D+00 0.000D+00 0.000D+00 0.100D+01
 Coeff:      0.750D-03 0.116D-01 0.927D-01 0.320D+00 0.575D+00
 Gap=     0.210 Goal=   None    Shift=    0.000
 RMSDP=2.66D-05 MaxDP=1.15D-03 DE=-4.35D-03 OVMax= 4.26D-03

 Cycle   6  Pass 0  IDiag  1:
 RMSU=  1.34D-05    CP:  1.00D+00  8.31D-01  7.92D-01  8.43D-01  7.07D-01
 E= -703.554228896680     Delta-E=       -0.000280227204 Rises=F Damp=F
 DIIS: error= 1.37D-04 at cycle   6 NSaved=   6.
 NSaved= 6 IEnMin= 6 EnMin= -703.554228896680     IErMin= 6 ErrMin= 1.37D-04
 ErrMax= 1.37D-04 EMaxC= 1.00D-01 BMatC= 5.00D-05 BMatP= 3.74D-04
 IDIUse=3 WtCom= 9.99D-01 WtEn= 1.37D-03
 Coeff-Com: -0.431D-03-0.288D-02 0.251D-01 0.105D+00 0.316D+00 0.558D+00
 Coeff-En:   0.000D+00 0.000D+00 0.000D+00 0.000D+00 0.477D-01 0.952D+00
 Coeff:     -0.430D-03-0.287D-02 0.250D-01 0.104D+00 0.315D+00 0.558D+00
 Gap=     0.210 Goal=   None    Shift=    0.000
 RMSDP=9.62D-06 MaxDP=5.76D-04 DE=-2.80D-04 OVMax= 1.45D-03

 Initial convergence to 1.0D-05 achieved.  Increase integral accuracy.
 Cycle   7  Pass 1  IDiag  1:
 E= -703.554208753840     Delta-E=        0.000020142840 Rises=F Damp=F
 DIIS: error= 8.15D-05 at cycle   1 NSaved=   1.
 NSaved= 1 IEnMin= 1 EnMin= -703.554208753840     IErMin= 1 ErrMin= 8.15D-05
 ErrMax= 8.15D-05 EMaxC= 1.00D-01 BMatC= 1.46D-05 BMatP= 1.46D-05
 IDIUse=1 WtCom= 1.00D+00 WtEn= 0.00D+00
 Coeff-Com:  0.100D+01
 Coeff:      0.100D+01
 Gap=     0.210 Goal=   None    Shift=    0.000
 RMSDP=9.62D-06 MaxDP=5.76D-04 DE= 2.01D-05 OVMax= 1.55D-03

 Cycle   8  Pass 1  IDiag  1:
 RMSU=  2.02D-05    CP:  1.00D+00
 E= -703.554184943909     Delta-E=        0.000023809931 Rises=F Damp=F
 DIIS: error= 1.65D-04 at cycle   2 NSaved=   2.
 NSaved= 2 IEnMin= 1 EnMin= -703.554208753840     IErMin= 1 ErrMin= 8.15D-05
 ErrMax= 1.65D-04 EMaxC= 1.00D-01 BMatC= 4.70D-05 BMatP= 1.46D-05
 IDIUse=3 WtCom= 4.38D-01 WtEn= 5.62D-01
 Coeff-Com:  0.654D+00 0.346D+00
 Coeff-En:   0.739D+00 0.261D+00
 Coeff:      0.702D+00 0.298D+00
 Gap=     0.210 Goal=   None    Shift=    0.000
 RMSDP=6.16D-06 MaxDP=3.76D-04 DE= 2.38D-05 OVMax= 1.01D-03

 Cycle   9  Pass 1  IDiag  1:
 RMSU=  4.19D-06    CP:  1.00D+00  9.43D-01
 E= -703.554218709994     Delta-E=       -0.000033766085 Rises=F Damp=F
 DIIS: error= 1.31D-05 at cycle   3 NSaved=   3.
 NSaved= 3 IEnMin= 3 EnMin= -703.554218709994     IErMin= 3 ErrMin= 1.31D-05
 ErrMax= 1.31D-05 EMaxC= 1.00D-01 BMatC= 2.92D-07 BMatP= 1.46D-05
 IDIUse=1 WtCom= 1.00D+00 WtEn= 0.00D+00
 Coeff-Com:  0.975D-01 0.802D-02 0.894D+00
 Coeff:      0.975D-01 0.802D-02 0.894D+00
 Gap=     0.210 Goal=   None    Shift=    0.000
 RMSDP=1.27D-06 MaxDP=6.97D-05 DE=-3.38D-05 OVMax= 1.51D-04

 Cycle  10  Pass 1  IDiag  1:
 RMSU=  8.01D-07    CP:  1.00D+00  9.48D-01  1.09D+00
 E= -703.554218800112     Delta-E=       -0.000000090118 Rises=F Damp=F
 DIIS: error= 9.01D-06 at cycle   4 NSaved=   4.
 NSaved= 4 IEnMin= 4 EnMin= -703.554218800112     IErMin= 4 ErrMin= 9.01D-06
 ErrMax= 9.01D-06 EMaxC= 1.00D-01 BMatC= 1.91D-07 BMatP= 2.92D-07
 IDIUse=1 WtCom= 1.00D+00 WtEn= 0.00D+00
 Coeff-Com: -0.834D-03-0.246D-01 0.508D+00 0.517D+00
 Coeff:     -0.834D-03-0.246D-01 0.508D+00 0.517D+00
 Gap=     0.210 Goal=   None    Shift=    0.000
 RMSDP=5.25D-07 MaxDP=2.34D-05 DE=-9.01D-08 OVMax= 7.33D-05

 Cycle  11  Pass 1  IDiag  1:
 RMSU=  1.95D-07    CP:  1.00D+00  9.51D-01  1.09D+00  6.14D-01
 E= -703.554218955392     Delta-E=       -0.000000155280 Rises=F Damp=F
 DIIS: error= 2.46D-06 at cycle   5 NSaved=   5.
 NSaved= 5 IEnMin= 5 EnMin= -703.554218955392     IErMin= 5 ErrMin= 2.46D-06
 ErrMax= 2.46D-06 EMaxC= 1.00D-01 BMatC= 7.79D-09 BMatP= 1.91D-07
 IDIUse=1 WtCom= 1.00D+00 WtEn= 0.00D+00
 Coeff-Com: -0.295D-02-0.143D-01 0.273D+00 0.302D+00 0.443D+00
 Coeff:     -0.295D-02-0.143D-01 0.273D+00 0.302D+00 0.443D+00
 Gap=     0.210 Goal=   None    Shift=    0.000
 RMSDP=1.21D-07 MaxDP=5.39D-06 DE=-1.55D-07 OVMax= 1.73D-05

 Cycle  12  Pass 1  IDiag  1:
 RMSU=  7.71D-08    CP:  1.00D+00  9.52D-01  1.09D+00  6.29D-01  8.31D-01
 E= -703.554218961097     Delta-E=       -0.000000005705 Rises=F Damp=F
 DIIS: error= 8.03D-07 at cycle   6 NSaved=   6.
 NSaved= 6 IEnMin= 6 EnMin= -703.554218961097     IErMin= 6 ErrMin= 8.03D-07
 ErrMax= 8.03D-07 EMaxC= 1.00D-01 BMatC= 1.00D-09 BMatP= 7.79D-09
 IDIUse=1 WtCom= 1.00D+00 WtEn= 0.00D+00
 Coeff-Com: -0.177D-02-0.488D-02 0.885D-01 0.104D+00 0.274D+00 0.540D+00
 Coeff:     -0.177D-02-0.488D-02 0.885D-01 0.104D+00 0.274D+00 0.540D+00
 Gap=     0.210 Goal=   None    Shift=    0.000
 RMSDP=3.87D-08 MaxDP=2.36D-06 DE=-5.71D-09 OVMax= 5.90D-06

 Cycle  13  Pass 1  IDiag  1:
 RMSU=  2.39D-08    CP:  1.00D+00  9.52D-01  1.09D+00  6.27D-01  8.90D-01
                    CP:  9.64D-01
 E= -703.554218961760     Delta-E=       -0.000000000663 Rises=F Damp=F
 DIIS: error= 2.28D-07 at cycle   7 NSaved=   7.
 NSaved= 7 IEnMin= 7 EnMin= -703.554218961760     IErMin= 7 ErrMin= 2.28D-07
 ErrMax= 2.28D-07 EMaxC= 1.00D-01 BMatC= 1.00D-10 BMatP= 1.00D-09
 IDIUse=1 WtCom= 1.00D+00 WtEn= 0.00D+00
 Coeff-Com: -0.361D-03 0.156D-03-0.449D-02-0.252D-02 0.679D-01 0.278D+00
 Coeff-Com:  0.661D+00
 Coeff:     -0.361D-03 0.156D-03-0.449D-02-0.252D-02 0.679D-01 0.278D+00
 Coeff:      0.661D+00
 Gap=     0.210 Goal=   None    Shift=    0.000
 RMSDP=1.96D-08 MaxDP=1.89D-06 DE=-6.63D-10 OVMax= 1.74D-06

 Cycle  14  Pass 1  IDiag  1:
 RMSU=  8.41D-09    CP:  1.00D+00  9.52D-01  1.09D+00  6.33D-01  9.30D-01
                    CP:  1.02D+00  8.67D-01
 E= -703.554218961806     Delta-E=       -0.000000000045 Rises=F Damp=F
 DIIS: error= 5.45D-08 at cycle   8 NSaved=   8.
 NSaved= 8 IEnMin= 8 EnMin= -703.554218961806     IErMin= 8 ErrMin= 5.45D-08
 ErrMax= 5.45D-08 EMaxC= 1.00D-01 BMatC= 6.88D-12 BMatP= 1.00D-10
 IDIUse=1 WtCom= 1.00D+00 WtEn= 0.00D+00
 Coeff-Com:  0.352D-05 0.476D-03-0.916D-02-0.996D-02 0.476D-02 0.625D-01
 Coeff-Com:  0.273D+00 0.678D+00
 Coeff:      0.352D-05 0.476D-03-0.916D-02-0.996D-02 0.476D-02 0.625D-01
 Coeff:      0.273D+00 0.678D+00
 Gap=     0.210 Goal=   None    Shift=    0.000
 RMSDP=4.93D-09 MaxDP=3.14D-07 DE=-4.55D-11 OVMax= 8.05D-07

 SCF Done:  E(RM06) =  -703.554218962     A.U. after   14 cycles
             Convg  =    0.4933D-08             -V/T =  2.0078
 KE= 6.980883641949D+02 PE=-3.531791023973D+03 EE= 1.185843351298D+03
 Leave Link  502 at Thu Mar 14 11:37:40 2013, MaxMem= 4294967296 cpu:    1065.0
 (Enter C:\G09W\l601.exe)
 Copying SCF densities to generalized density rwf, IOpCl= 0 IROHF=0.

 **********************************************************************

            Population analysis using the SCF density.

 **********************************************************************

 Orbital symmetries:
       Occupied  (A) (A) (A) (A) (A) (A) (A) (A) (A) (A) (A) (A)
                 (A) (A) (A) (A) (A) (A) (A) (A) (A) (A) (A) (A)
                 (A) (A) (A) (A) (A) (A) (A) (A) (A) (A) (A) (A)
                 (A) (A) (A) (A) (A) (A) (A) (A) (A) (A) (A) (A)
                 (A) (A) (A) (A) (A) (A)
       Virtual   (A) (A) (A) (A) (A) (A) (A) (A) (A) (A) (A) (A)
                 (A) (A) (A) (A) (A) (A) (A) (A) (A) (A) (A) (A)
                 (A) (A) (A) (A) (A) (A) (A) (A) (A) (A) (A) (A)
                 (A) (A) (A) (A) (A) (A) (A) (A) (A) (A) (A) (A)
                 (A) (A) (A) (A) (A) (A) (A) (A) (A) (A) (A) (A)
                 (A) (A) (A) (A) (A) (A) (A) (A) (A) (A) (A) (A)
                 (A) (A) (A) (A) (A) (A) (A) (A) (A) (A) (A) (A)
                 (A) (A) (A) (A) (A) (A) (A) (A) (A) (A) (A) (A)
                 (A) (A) (A) (A) (A) (A) (A) (A) (A) (A) (A) (A)
                 (A) (A) (A) (A) (A) (A) (A) (A) (A) (A) (A) (A)
                 (A) (A) (A) (A) (A) (A) (A) (A) (A) (A) (A) (A)
                 (A) (A) (A) (A) (A) (A) (A) (A) (A) (A) (A) (A)
                 (A) (A) (A) (A) (A) (A) (A) (A) (A) (A) (A) (A)
                 (A) (A) (A) (A) (A) (A) (A) (A) (A) (A) (A) (A)
                 (A) (A) (A) (A) (A) (A) (A) (A) (A) (A) (A) (A)
                 (A) (A) (A) (A) (A) (A) (A) (A) (A) (A) (A) (A)
                 (A) (A) (A) (A) (A) (A) (A) (A) (A) (A) (A) (A)
                 (A) (A) (A) (A) (A) (A) (A) (A) (A) (A) (A) (A)
                 (A) (A) (A) (A) (A) (A) (A) (A) (A) (A) (A) (A)
                 (A) (A) (A) (A) (A) (A) (A) (A) (A) (A) (A) (A)
                 (A) (A) (A) (A) (A) (A) (A) (A) (A) (A) (A) (A)
                 (A) (A) (A) (A) (A) (A) (A) (A) (A) (A) (A) (A)
                 (A) (A) (A) (A) (A) (A) (A) (A) (A) (A) (A) (A)
                 (A) (A) (A) (A) (A) (A) (A) (A) (A) (A) (A) (A)
                 (A) (A) (A) (A) (A) (A) (A) (A) (A) (A) (A) (A)
                 (A) (A) (A) (A) (A) (A) (A) (A) (A) (A) (A) (A)
                 (A) (A) (A) (A) (A) (A) (A) (A) (A) (A) (A) (A)
                 (A) (A) (A) (A) (A) (A) (A) (A) (A) (A) (A) (A)
                 (A) (A) (A) (A) (A) (A) (A) (A) (A) (A) (A) (A)
                 (A) (A) (A) (A) (A) (A) (A) (A) (A) (A) (A) (A)
                 (A) (A) (A) (A) (A) (A) (A) (A) (A) (A) (A) (A)
                 (A) (A) (A) (A) (A) (A) (A) (A) (A) (A) (A) (A)
                 (A) (A) (A) (A) (A) (A) (A) (A) (A) (A) (A) (A)
                 (A) (A) (A) (A) (A) (A) (A) (A) (A) (A) (A) (A)
                 (A) (A) (A) (A) (A) (A) (A) (A) (A) (A) (A) (A)
                 (A) (A) (A) (A) (A) (A) (A) (A) (A) (A) (A) (A)
                 (A) (A) (A) (A) (A) (A) (A) (A) (A) (A) (A) (A)
                 (A) (A) (A) (A) (A) (A) (A) (A) (A) (A) (A) (A)
                 (A) (A) (A) (A) (A) (A) (A) (A) (A) (A) (A) (A)
                 (A) (A) (A) (A) (A) (A) (A) (A) (A) (A) (A) (A)
                 (A) (A) (A) (A) (A) (A) (A) (A) (A) (A) (A) (A)
                 (A) (A) (A) (A) (A) (A) (A) (A) (A) (A) (A) (A)
                 (A) (A) (A) (A) (A) (A) (A) (A) (A) (A) (A) (A)
                 (A) (A) (A) (A) (A) (A) (A) (A) (A) (A) (A) (A)
                 (A) (A) (A) (A) (A) (A) (A) (A) (A) (A) (A) (A)
                 (A) (A) (A) (A) (A) (A) (A) (A) (A) (A) (A) (A)
                 (A) (A) (A) (A) (A) (A) (A) (A) (A) (A) (A) (A)
                 (A) (A) (A) (A) (A) (A) (A) (A) (A) (A) (A) (A)
 The electronic state is 1-A.
 Alpha  occ. eigenvalues --  -19.22910 -19.21021 -19.20058 -14.42142 -14.41941
 Alpha  occ. eigenvalues --  -14.38888 -10.37805 -10.37216 -10.36176 -10.30813
 Alpha  occ. eigenvalues --  -10.26567 -10.24754 -10.24378 -10.24021  -1.07868
 Alpha  occ. eigenvalues --   -1.05220  -1.04384  -0.94953  -0.93531  -0.89529
 Alpha  occ. eigenvalues --   -0.81310  -0.75994  -0.73921  -0.70471  -0.64734
 Alpha  occ. eigenvalues --   -0.60515  -0.58072  -0.56274  -0.53910  -0.53125
 Alpha  occ. eigenvalues --   -0.51702  -0.49322  -0.48990  -0.48812  -0.47720
 Alpha  occ. eigenvalues --   -0.46282  -0.45201  -0.44571  -0.43913  -0.43549
 Alpha  occ. eigenvalues --   -0.41896  -0.41340  -0.39797  -0.38706  -0.37620
 Alpha  occ. eigenvalues --   -0.37259  -0.35825  -0.35459  -0.32759  -0.30175
 Alpha  occ. eigenvalues --   -0.28677  -0.28430  -0.27397  -0.26251
 Alpha virt. eigenvalues --   -0.05274  -0.02187  -0.01464   0.00112   0.03878
 Alpha virt. eigenvalues --    0.04570   0.05464   0.05921   0.07666   0.07983
 Alpha virt. eigenvalues --    0.09311   0.09689   0.10425   0.10823   0.12518
 Alpha virt. eigenvalues --    0.12787   0.13669   0.14199   0.15091   0.15652
 Alpha virt. eigenvalues --    0.17078   0.18277   0.19356   0.20484   0.21183
 Alpha virt. eigenvalues --    0.22487   0.24294   0.24709   0.25732   0.26329
 Alpha virt. eigenvalues --    0.26585   0.27522   0.28862   0.29278   0.29908
 Alpha virt. eigenvalues --    0.30964   0.31617   0.32792   0.33018   0.33433
 Alpha virt. eigenvalues --    0.34542   0.35385   0.36425   0.36846   0.37349
 Alpha virt. eigenvalues --    0.38432   0.38870   0.39124   0.40046   0.40297
 Alpha virt. eigenvalues --    0.40507   0.41537   0.41748   0.41823   0.42594
 Alpha virt. eigenvalues --    0.42792   0.43087   0.43618   0.44232   0.44660
 Alpha virt. eigenvalues --    0.45144   0.45581   0.46494   0.47144   0.47822
 Alpha virt. eigenvalues --    0.48744   0.48945   0.49439   0.50251   0.50738
 Alpha virt. eigenvalues --    0.51634   0.52130   0.53265   0.54401   0.54526
 Alpha virt. eigenvalues --    0.54887   0.55950   0.56632   0.57951   0.59173
 Alpha virt. eigenvalues --    0.60051   0.60682   0.62727   0.64167   0.65346
 Alpha virt. eigenvalues --    0.66433   0.67710   0.68971   0.69739   0.71214
 Alpha virt. eigenvalues --    0.72521   0.73317   0.74143   0.74950   0.76138
 Alpha virt. eigenvalues --    0.77654   0.79163   0.79894   0.80181   0.80805
 Alpha virt. eigenvalues --    0.82226   0.83241   0.84169   0.84778   0.85709
 Alpha virt. eigenvalues --    0.86716   0.88416   0.89153   0.89575   0.90752
 Alpha virt. eigenvalues --    0.92212   0.92936   0.93489   0.94206   0.95129
 Alpha virt. eigenvalues --    0.95994   0.96516   0.97836   0.99043   1.00383
 Alpha virt. eigenvalues --    1.00903   1.02002   1.02338   1.02957   1.03676
 Alpha virt. eigenvalues --    1.04555   1.05417   1.07024   1.07984   1.09318
 Alpha virt. eigenvalues --    1.09488   1.10324   1.10871   1.11418   1.12237
 Alpha virt. eigenvalues --    1.12762   1.14240   1.15491   1.16155   1.17629
 Alpha virt. eigenvalues --    1.18804   1.19719   1.20776   1.21292   1.21520
 Alpha virt. eigenvalues --    1.22191   1.23173   1.23821   1.24055   1.24584
 Alpha virt. eigenvalues --    1.25372   1.26151   1.26473   1.27350   1.28140
 Alpha virt. eigenvalues --    1.29164   1.29836   1.30118   1.30828   1.32054
 Alpha virt. eigenvalues --    1.32894   1.33166   1.34494   1.36206   1.36567
 Alpha virt. eigenvalues --    1.37195   1.39242   1.39714   1.41093   1.42835
 Alpha virt. eigenvalues --    1.43452   1.46523   1.47529   1.48086   1.48615
 Alpha virt. eigenvalues --    1.50189   1.51702   1.51929   1.53932   1.54699
 Alpha virt. eigenvalues --    1.55698   1.56998   1.57443   1.58068   1.59828
 Alpha virt. eigenvalues --    1.59967   1.61453   1.62766   1.64710   1.65183
 Alpha virt. eigenvalues --    1.66434   1.68733   1.71507   1.72565   1.74461
 Alpha virt. eigenvalues --    1.75627   1.77450   1.78725   1.80695   1.82526
 Alpha virt. eigenvalues --    1.83571   1.85420   1.87949   1.90827   1.93020
 Alpha virt. eigenvalues --    1.95760   1.98436   1.99995   2.03380   2.04671
 Alpha virt. eigenvalues --    2.07923   2.12804   2.15537   2.16187   2.17257
 Alpha virt. eigenvalues --    2.18914   2.19708   2.20402   2.21932   2.22711
 Alpha virt. eigenvalues --    2.24166   2.27716   2.28742   2.32062   2.33481
 Alpha virt. eigenvalues --    2.34412   2.34940   2.38075   2.39574   2.40643
 Alpha virt. eigenvalues --    2.41207   2.42796   2.44392   2.45403   2.46941
 Alpha virt. eigenvalues --    2.47407   2.49374   2.50977   2.52288   2.53379
 Alpha virt. eigenvalues --    2.54963   2.55473   2.56989   2.57649   2.59836
 Alpha virt. eigenvalues --    2.61160   2.62369   2.63156   2.63819   2.64451
 Alpha virt. eigenvalues --    2.66401   2.67137   2.67991   2.68925   2.70544
 Alpha virt. eigenvalues --    2.71435   2.72481   2.73021   2.74089   2.76014
 Alpha virt. eigenvalues --    2.77384   2.78707   2.79126   2.79816   2.80431
 Alpha virt. eigenvalues --    2.83572   2.83926   2.84913   2.85614   2.86966
 Alpha virt. eigenvalues --    2.88200   2.88496   2.89229   2.90386   2.91932
 Alpha virt. eigenvalues --    2.92312   2.93816   2.94876   2.95831   2.97187
 Alpha virt. eigenvalues --    2.97452   2.97725   2.99603   2.99962   3.00824
 Alpha virt. eigenvalues --    3.01742   3.02556   3.03422   3.03968   3.04453
 Alpha virt. eigenvalues --    3.05105   3.05653   3.07248   3.07904   3.08903
 Alpha virt. eigenvalues --    3.09119   3.10823   3.11111   3.12121   3.12772
 Alpha virt. eigenvalues --    3.13843   3.14558   3.15885   3.16351   3.16883
 Alpha virt. eigenvalues --    3.19111   3.19997   3.20660   3.21116   3.22152
 Alpha virt. eigenvalues --    3.23742   3.23883   3.25497   3.26480   3.27255
 Alpha virt. eigenvalues --    3.27535   3.28769   3.29771   3.30790   3.31331
 Alpha virt. eigenvalues --    3.32410   3.33120   3.35022   3.35407   3.36443
 Alpha virt. eigenvalues --    3.37099   3.38720   3.39088   3.39886   3.41064
 Alpha virt. eigenvalues --    3.41559   3.41782   3.43297   3.43641   3.44655
 Alpha virt. eigenvalues --    3.45683   3.45922   3.46460   3.47599   3.48063
 Alpha virt. eigenvalues --    3.49419   3.50832   3.51500   3.52682   3.53667
 Alpha virt. eigenvalues --    3.56449   3.57115   3.58676   3.59301   3.60254
 Alpha virt. eigenvalues --    3.61391   3.62902   3.63459   3.65212   3.65507
 Alpha virt. eigenvalues --    3.66696   3.68171   3.69064   3.70011   3.70545
 Alpha virt. eigenvalues --    3.72006   3.72708   3.74691   3.75118   3.75552
 Alpha virt. eigenvalues --    3.77090   3.78222   3.78695   3.80367   3.80953
 Alpha virt. eigenvalues --    3.81815   3.82882   3.83818   3.84652   3.85081
 Alpha virt. eigenvalues --    3.85649   3.87745   3.88761   3.89183   3.90123
 Alpha virt. eigenvalues --    3.90738   3.91729   3.92591   3.94022   3.96362
 Alpha virt. eigenvalues --    3.96628   3.97591   3.98023   3.99021   3.99917
 Alpha virt. eigenvalues --    4.01291   4.02096   4.02528   4.04519   4.05374
 Alpha virt. eigenvalues --    4.06211   4.06934   4.07744   4.08733   4.10415
 Alpha virt. eigenvalues --    4.10910   4.12076   4.12943   4.14492   4.15571
 Alpha virt. eigenvalues --    4.16044   4.16906   4.17759   4.18275   4.18867
 Alpha virt. eigenvalues --    4.20813   4.22760   4.23720   4.24183   4.25770
 Alpha virt. eigenvalues --    4.26795   4.27851   4.28374   4.30187   4.30811
 Alpha virt. eigenvalues --    4.32227   4.32496   4.33165   4.34989   4.36257
 Alpha virt. eigenvalues --    4.36460   4.37800   4.39527   4.39848   4.41989
 Alpha virt. eigenvalues --    4.42877   4.44655   4.47017   4.49419   4.51313
 Alpha virt. eigenvalues --    4.53615   4.56442   4.58167   4.59108   4.61649
 Alpha virt. eigenvalues --    4.64495   4.67142   4.68314   4.69605   4.70591
 Alpha virt. eigenvalues --    4.72701   4.75168   4.77303   4.77569   4.79588
 Alpha virt. eigenvalues --    4.79934   4.81039   4.82552   4.82702   4.83844
 Alpha virt. eigenvalues --    4.84653   4.87312   4.89237   4.90377   4.91256
 Alpha virt. eigenvalues --    4.93512   4.95107   4.95517   4.97046   4.98236
 Alpha virt. eigenvalues --    4.99487   5.01266   5.02550   5.03894   5.04780
 Alpha virt. eigenvalues --    5.06556   5.07421   5.08325   5.08998   5.09993
 Alpha virt. eigenvalues --    5.11471   5.12119   5.13100   5.13370   5.14977
 Alpha virt. eigenvalues --    5.15175   5.16435   5.19030   5.20129   5.20352
 Alpha virt. eigenvalues --    5.21562   5.22622   5.23479   5.24090   5.24891
 Alpha virt. eigenvalues --    5.25807   5.26434   5.27206   5.29893   5.30748
 Alpha virt. eigenvalues --    5.31879   5.32919   5.35657   5.37242   5.37651
 Alpha virt. eigenvalues --    5.41399   5.42703   5.45077   5.48474   5.50365
 Alpha virt. eigenvalues --    5.50808   5.52051   5.54027   5.56668   5.57432
 Alpha virt. eigenvalues --    5.59673   5.61962   5.63222   5.65179   5.65642
 Alpha virt. eigenvalues --    5.67012   5.68107   5.69497   5.71434   5.72987
 Alpha virt. eigenvalues --    5.75996   5.77101   5.77719   5.80097   5.82378
 Alpha virt. eigenvalues --    5.82887   5.88200   5.88674   5.89902   5.92003
 Alpha virt. eigenvalues --    5.93127   5.94984   5.95641   6.01935   6.07492
 Alpha virt. eigenvalues --    6.08590   6.11134   6.13810   6.17118   6.18456
 Alpha virt. eigenvalues --    6.25907   6.45555   6.46481   6.46727   6.50837
 Alpha virt. eigenvalues --    6.52725   6.53060   6.53733   6.56091   6.58047
 Alpha virt. eigenvalues --    6.64874   6.71009   6.83271   6.86456   6.88879
 Alpha virt. eigenvalues --    6.91642   7.04030   7.04156   7.07124   7.08218
 Alpha virt. eigenvalues --    7.10272   7.11976   8.75486   9.06215   9.37092
 Alpha virt. eigenvalues --   11.50726  11.71418  12.03922  12.13096  12.49285
 Alpha virt. eigenvalues --   12.61206  12.68792  13.00736  13.38850  13.64264
 Alpha virt. eigenvalues --   13.72757
          Condensed to atoms (all electrons):
              1          2          3          4          5          6
     1  C    4.528006   0.208583  -0.015608  -0.013990  -0.038607  -0.000642
     2  C    0.208583   5.421753   0.394686   0.375839   0.177279  -0.028414
     3  H   -0.015608   0.394686   0.504195  -0.012012  -0.035939   0.003362
     4  H   -0.013990   0.375839  -0.012012   0.457972  -0.027280  -0.001959
     5  C   -0.038607   0.177279  -0.035939  -0.027280   5.357834   0.397288
     6  H   -0.000642  -0.028414   0.003362  -0.001959   0.397288   0.443590
     7  H   -0.000075  -0.027809  -0.001560   0.003632   0.406215  -0.012442
     8  C    0.003461  -0.037295   0.006002  -0.004486   0.195646  -0.021760
     9  H    0.000378  -0.004660   0.000395  -0.001209  -0.016376   0.002305
    10  C   -0.000354   0.002651   0.000683   0.000429  -0.070360  -0.001501
    11  N    0.396279  -0.083173   0.000314   0.007632   0.003989   0.000109
    12  H   -0.024151   0.006888   0.000150   0.000009  -0.001178  -0.000051
    13  H   -0.030877   0.013533  -0.000566  -0.000791  -0.000590  -0.000016
    14  N    0.000975  -0.004353  -0.001484   0.009000  -0.044315  -0.002061
    15  H    0.000010  -0.000349   0.000060  -0.000194   0.010796   0.000021
    16  O   -0.000048   0.000483  -0.000031  -0.000077   0.007264   0.008696
    17  O    0.693948  -0.112593   0.000263   0.003856   0.005039   0.001465
    18  N    0.000004  -0.000050  -0.000093  -0.000020   0.004329   0.000760
    19  H    0.000000   0.000001   0.000005   0.000000   0.000233  -0.000019
    20  C    0.000000   0.000018   0.000004   0.000001  -0.001137  -0.000052
    21  H    0.000000   0.000002  -0.000001   0.000000  -0.000244  -0.000085
    22  H    0.000000  -0.000001   0.000000   0.000000   0.000030   0.000001
    23  H   -0.000001  -0.000004   0.000003   0.000001   0.000420   0.000046
    24  C    0.000108  -0.002714   0.000283   0.000763  -0.013257   0.006099
    25  C    0.000016   0.000047   0.000023   0.000887  -0.000088  -0.002282
    26  H    0.000006  -0.000050  -0.000004  -0.000057   0.000039  -0.000527
    27  H   -0.000003   0.000010  -0.000001  -0.000062   0.000115   0.000387
    28  H    0.000000   0.000009  -0.000001  -0.000052  -0.000030   0.000198
    29  O    0.000375  -0.004363   0.000436   0.013054  -0.009062   0.004038
              7          8          9         10         11         12
     1  C   -0.000075   0.003461   0.000378  -0.000354   0.396279  -0.024151
     2  C   -0.027809  -0.037295  -0.004660   0.002651  -0.083173   0.006888
     3  H   -0.001560   0.006002   0.000395   0.000683   0.000314   0.000150
     4  H    0.003632  -0.004486  -0.001209   0.000429   0.007632   0.000009
     5  C    0.406215   0.195646  -0.016376  -0.070360   0.003989  -0.001178
     6  H   -0.012442  -0.021760   0.002305  -0.001501   0.000109  -0.000051
     7  H    0.458560  -0.032412  -0.000474  -0.003225   0.001238  -0.000049
     8  C   -0.032412   5.212873   0.414740   0.289881   0.000096  -0.000029
     9  H   -0.000474   0.414740   0.460517  -0.044748  -0.000003  -0.000001
    10  C   -0.003225   0.289881  -0.044748   4.812728  -0.000001   0.000000
    11  N    0.001238   0.000096  -0.000003  -0.000001   6.287875   0.382265
    12  H   -0.000049  -0.000029  -0.000001   0.000000   0.382265   0.540221
    13  H   -0.000104   0.000007   0.000001   0.000000   0.381948  -0.035619
    14  N    0.002813   0.228620  -0.017791  -0.035427  -0.000021  -0.000007
    15  H   -0.000217  -0.038563  -0.006120   0.003353   0.000000   0.000000
    16  O   -0.000386  -0.072318   0.004678   0.574403   0.000000   0.000000
    17  O    0.016792   0.001357   0.000041  -0.000065  -0.114386   0.000734
    18  N    0.000803  -0.061001   0.017428   0.348379   0.000000   0.000000
    19  H   -0.000039   0.000594  -0.001286  -0.005221   0.000000   0.000000
    20  C    0.000020   0.008602  -0.000179  -0.053690   0.000000   0.000000
    21  H    0.000063   0.002872   0.000342  -0.014275   0.000000   0.000000
    22  H   -0.000004  -0.000248  -0.000150   0.005748   0.000000   0.000000
    23  H    0.000002  -0.001134  -0.000378  -0.000764   0.000000   0.000000
    24  C    0.000574  -0.028530   0.002793  -0.010496  -0.000057   0.000039
    25  C    0.000096  -0.008985  -0.000656  -0.005443  -0.000001   0.000003
    26  H   -0.000031  -0.003400  -0.000414   0.009056   0.000000   0.000000
    27  H   -0.000021  -0.000452   0.000056  -0.000682   0.000000   0.000000
    28  H    0.000000   0.000702   0.000033   0.000120   0.000000   0.000000
    29  O    0.000311  -0.000270  -0.000476  -0.001181  -0.000189   0.000402
             13         14         15         16         17         18
     1  C   -0.030877   0.000975   0.000010  -0.000048   0.693948   0.000004
     2  C    0.013533  -0.004353  -0.000349   0.000483  -0.112593  -0.000050
     3  H   -0.000566  -0.001484   0.000060  -0.000031   0.000263  -0.000093
     4  H   -0.000791   0.009000  -0.000194  -0.000077   0.003856  -0.000020
     5  C   -0.000590  -0.044315   0.010796   0.007264   0.005039   0.004329
     6  H   -0.000016  -0.002061   0.000021   0.008696   0.001465   0.000760
     7  H   -0.000104   0.002813  -0.000217  -0.000386   0.016792   0.000803
     8  C    0.000007   0.228620  -0.038563  -0.072318   0.001357  -0.061001
     9  H    0.000001  -0.017791  -0.006120   0.004678   0.000041   0.017428
    10  C    0.000000  -0.035427   0.003353   0.574403  -0.000065   0.348379
    11  N    0.381948  -0.000021   0.000000   0.000000  -0.114386   0.000000
    12  H   -0.035619  -0.000007   0.000000   0.000000   0.000734   0.000000
    13  H    0.542260   0.000001   0.000000   0.000000   0.006008   0.000000
    14  N    0.000001   6.570705   0.368883  -0.001190  -0.000030   0.000807
    15  H    0.000000   0.368883   0.597095  -0.000278   0.000002  -0.000324
    16  O    0.000000  -0.001190  -0.000278   7.929605   0.000001  -0.092253
    17  O    0.006008  -0.000030   0.000002   0.000001   7.847016   0.000000
    18  N    0.000000   0.000807  -0.000324  -0.092253   0.000000   6.447399
    19  H    0.000000  -0.000436   0.000744  -0.002227   0.000000   0.367638
    20  C    0.000000  -0.000126  -0.000126  -0.009186   0.000000   0.272096
    21  H    0.000000   0.000018  -0.000035   0.017580   0.000000  -0.053818
    22  H    0.000000   0.000016   0.000006   0.000981   0.000000  -0.024031
    23  H    0.000000  -0.000062  -0.000001  -0.001297  -0.000001  -0.031122
    24  C    0.000004   0.269745  -0.022009   0.015053  -0.000076  -0.000140
    25  C    0.000000  -0.071954   0.004421  -0.024023   0.000000  -0.000288
    26  H    0.000000   0.006893  -0.003785  -0.013599   0.000000  -0.002229
    27  H    0.000000   0.006115  -0.000072   0.000349   0.000000   0.000117
    28  H    0.000000   0.000533   0.000605   0.002598   0.000000   0.000058
    29  O   -0.000007  -0.088276   0.004669  -0.001563  -0.000011  -0.000011
             19         20         21         22         23         24
     1  C    0.000000   0.000000   0.000000   0.000000  -0.000001   0.000108
     2  C    0.000001   0.000018   0.000002  -0.000001  -0.000004  -0.002714
     3  H    0.000005   0.000004  -0.000001   0.000000   0.000003   0.000283
     4  H    0.000000   0.000001   0.000000   0.000000   0.000001   0.000763
     5  C    0.000233  -0.001137  -0.000244   0.000030   0.000420  -0.013257
     6  H   -0.000019  -0.000052  -0.000085   0.000001   0.000046   0.006099
     7  H   -0.000039   0.000020   0.000063  -0.000004   0.000002   0.000574
     8  C    0.000594   0.008602   0.002872  -0.000248  -0.001134  -0.028530
     9  H   -0.001286  -0.000179   0.000342  -0.000150  -0.000378   0.002793
    10  C   -0.005221  -0.053690  -0.014275   0.005748  -0.000764  -0.010496
    11  N    0.000000   0.000000   0.000000   0.000000   0.000000  -0.000057
    12  H    0.000000   0.000000   0.000000   0.000000   0.000000   0.000039
    13  H    0.000000   0.000000   0.000000   0.000000   0.000000   0.000004
    14  N   -0.000436  -0.000126   0.000018   0.000016  -0.000062   0.269745
    15  H    0.000744  -0.000126  -0.000035   0.000006  -0.000001  -0.022009
    16  O   -0.002227  -0.009186   0.017580   0.000981  -0.001297   0.015053
    17  O    0.000000   0.000000   0.000000   0.000000  -0.000001  -0.000076
    18  N    0.367638   0.272096  -0.053818  -0.024031  -0.031122  -0.000140
    19  H    0.578146  -0.028340  -0.009576  -0.004166   0.006937  -0.000147
    20  C   -0.028340   4.801701   0.401540   0.402302   0.402345  -0.000074
    21  H   -0.009576   0.401540   0.624772  -0.035932  -0.047953   0.000013
    22  H   -0.004166   0.402302  -0.035932   0.577581  -0.020112  -0.000004
    23  H    0.006937   0.402345  -0.047953  -0.020112   0.576838  -0.000009
    24  C   -0.000147  -0.000074   0.000013  -0.000004  -0.000009   4.630364
    25  C    0.000324   0.000224   0.000058   0.000009  -0.000019   0.283108
    26  H    0.001946   0.000298  -0.000465   0.000064   0.000113  -0.055432
    27  H   -0.000005   0.000003  -0.000065   0.000001   0.000002  -0.026525
    28  H   -0.000102  -0.000005   0.000011  -0.000001  -0.000002  -0.016396
    29  O    0.000005  -0.000001   0.000001   0.000000   0.000000   0.651093
             25         26         27         28         29
     1  C    0.000016   0.000006  -0.000003   0.000000   0.000375
     2  C    0.000047  -0.000050   0.000010   0.000009  -0.004363
     3  H    0.000023  -0.000004  -0.000001  -0.000001   0.000436
     4  H    0.000887  -0.000057  -0.000062  -0.000052   0.013054
     5  C   -0.000088   0.000039   0.000115  -0.000030  -0.009062
     6  H   -0.002282  -0.000527   0.000387   0.000198   0.004038
     7  H    0.000096  -0.000031  -0.000021   0.000000   0.000311
     8  C   -0.008985  -0.003400  -0.000452   0.000702  -0.000270
     9  H   -0.000656  -0.000414   0.000056   0.000033  -0.000476
    10  C   -0.005443   0.009056  -0.000682   0.000120  -0.001181
    11  N   -0.000001   0.000000   0.000000   0.000000  -0.000189
    12  H    0.000003   0.000000   0.000000   0.000000   0.000402
    13  H    0.000000   0.000000   0.000000   0.000000  -0.000007
    14  N   -0.071954   0.006893   0.006115   0.000533  -0.088276
    15  H    0.004421  -0.003785  -0.000072   0.000605   0.004669
    16  O   -0.024023  -0.013599   0.000349   0.002598  -0.001563
    17  O    0.000000   0.000000   0.000000   0.000000  -0.000011
    18  N   -0.000288  -0.002229   0.000117   0.000058  -0.000011
    19  H    0.000324   0.001946  -0.000005  -0.000102   0.000005
    20  C    0.000224   0.000298   0.000003  -0.000005  -0.000001
    21  H    0.000058  -0.000465  -0.000065   0.000011   0.000001
    22  H    0.000009   0.000064   0.000001  -0.000001   0.000000
    23  H   -0.000019   0.000113   0.000002  -0.000002   0.000000
    24  C    0.283108  -0.055432  -0.026525  -0.016396   0.651093
    25  C    5.054426   0.399450   0.388387   0.385429  -0.069117
    26  H    0.399450   0.587239  -0.021572  -0.039079   0.003860
    27  H    0.388387  -0.021572   0.519625  -0.011450   0.005025
    28  H    0.385429  -0.039079  -0.011450   0.551786  -0.000225
    29  O   -0.069117   0.003860   0.005025  -0.000225   7.848550
 Mulliken atomic charges:
              1
     1  C    0.292208
     2  C   -0.295954
     3  H    0.156432
     4  H    0.189114
     5  C   -0.308054
     6  H    0.203446
     7  H    0.187728
     8  C   -0.054569
     9  H    0.191211
    10  C    0.200003
    11  N   -0.263913
    12  H    0.130374
    13  H    0.124807
    14  N   -0.197591
    15  H    0.081406
    16  O   -0.343215
    17  O   -0.349358
    18  N   -0.194437
    19  H    0.094993
    20  C   -0.196238
    21  H    0.115177
    22  H    0.097909
    23  H    0.116151
    24  C    0.315827
    25  C   -0.334051
    26  H    0.131681
    27  H    0.140720
    28  H    0.125261
    29  O   -0.357067
 Sum of Mulliken atomic charges =   0.00000
 Mulliken charges with hydrogens summed into heavy atoms:
              1
     1  C    0.292208
     2  C    0.049593
     5  C    0.083120
     8  C    0.136643
    10  C    0.200003
    11  N   -0.008732
    14  N   -0.116185
    16  O   -0.343215
    17  O   -0.349358
    18  N   -0.099445
    20  C    0.132998
    24  C    0.315827
    25  C    0.063611
    29  O   -0.357067
 Sum of Mulliken charges with hydrogens summed into heavy atoms =   0.00000
 Electronic spatial extent (au):  <R**2>=           3518.4690
 Charge=              0.0000 electrons
 Dipole moment (field-independent basis, Debye):
    X=              3.9374    Y=              0.2694    Z=              3.0176  Tot=              4.9680
 Quadrupole moment (field-independent basis, Debye-Ang):
   XX=            -69.6847   YY=            -87.1371   ZZ=            -86.3324
   XY=             -0.9997   XZ=              4.3335   YZ=             -1.0889
 Traceless Quadrupole moment (field-independent basis, Debye-Ang):
   XX=             11.3667   YY=             -6.0857   ZZ=             -5.2810
   XY=             -0.9997   XZ=              4.3335   YZ=             -1.0889
 Octapole moment (field-independent basis, Debye-Ang**2):
  XXX=             -8.1020  YYY=              5.0289  ZZZ=              0.2589  XYY=             26.1533
  XXY=              5.0310  XXZ=              0.1577  XZZ=              9.4115  YZZ=              5.2794
  YYZ=              3.0094  XYZ=             20.2478
 Hexadecapole moment (field-independent basis, Debye-Ang**3):
 XXXX=          -2542.5854 YYYY=          -1120.9078 ZZZZ=           -347.6961 XXXY=            -61.6144
 XXXZ=            135.4080 YYYX=              5.8171 YYYZ=             17.4432 ZZZX=             18.5555
 ZZZY=             -4.4140 XXYY=           -675.3910 XXZZ=           -590.7459 YYZZ=           -249.3137
 XXYZ=            -38.6530 YYXZ=            -31.2810 ZZXY=              5.1961
 N-N= 9.443050895180D+02 E-N=-3.531791034091D+03  KE= 6.980883641949D+02
 No NMR shielding tensors so no spin-rotation constants.
 Leave Link  601 at Thu Mar 14 11:37:43 2013, MaxMem= 4294967296 cpu:       2.0
 (Enter C:\G09W\l701.exe)
 Compute integral first derivatives.
 ... and contract with generalized density number  0.
 Leave Link  701 at Thu Mar 14 11:37:45 2013, MaxMem= 4294967296 cpu:       2.0
 (Enter C:\G09W\l702.exe)
 L702 exits ... SP integral derivatives will be done elsewhere.
 Leave Link  702 at Thu Mar 14 11:37:45 2013, MaxMem= 4294967296 cpu:       0.0
 (Enter C:\G09W\l703.exe)
 Compute integral first derivatives, UseDBF=F ICtDFT=           0.
 Integral derivatives from FoFDir, PRISM(SPDF).
 Calling FoFJK, ICntrl=      2127 FMM=F ISym2X=0 I1Cent= 0 IOpClX= 0 NMat=1 NMatS=1 NMatT=0.
 FoFCou: FMM=F IPFlag=           0 FMFlag=      100000 FMFlg1=         800
         NFxFlg=           0 DoJE=F BraDBF=F KetDBF=F FulRan=T
         Omega=  0.000000  0.000000  1.000000  0.000000  0.000000 ICntrl=    2127 IOpCl=  0
         NMat0=    1 NMatS0=    1 NMatT0=    0 NMatD0=    1 NMtDS0=    0 NMtDT0=    0
         I1Cent=           0 NGrid=           0.
 Symmetry not used in FoFCou.
 Leave Link  703 at Thu Mar 14 11:40:44 2013, MaxMem= 4294967296 cpu:     179.0
 (Enter C:\G09W\l716.exe)
 Dipole        = 1.54910189D+00 1.05981641D-01 1.18719773D+00
 ***** Axes restored to original set *****
 -------------------------------------------------------------------
 Center     Atomic                   Forces (Hartrees/Bohr)
 Number     Number              X              Y              Z
 -------------------------------------------------------------------
      1        6           0.046890000   -0.032669253    0.039354459
      2        6           0.039704064   -0.010059683    0.001802751
      3        1          -0.014238719   -0.007643245    0.001643558
      4        1          -0.005010150    0.004875192   -0.012025792
      5        6          -0.029220907    0.001882935   -0.009356868
      6        1           0.011819050    0.001574623   -0.000553449
      7        1           0.003746336   -0.006145336    0.011528655
      8        6           0.023177646    0.001993126    0.004049355
      9        1          -0.014543042   -0.001859081    0.003632878
     10        6           0.055384602    0.026407675    0.010390464
     11        7          -0.021387739    0.025868880    0.034640999
     12        1           0.003346960    0.007021096   -0.009213581
     13        1           0.009221481   -0.007927805    0.004827289
     14        7           0.033758013    0.004518111   -0.007583422
     15        1          -0.006029734    0.011943611    0.002988413
     16        8          -0.070247749   -0.040388122    0.023262100
     17        8          -0.052588256    0.024267179   -0.054987020
     18        7           0.024500402   -0.031222269   -0.020910005
     19        1          -0.012396526    0.006603158   -0.004120948
     20        6          -0.010990691    0.008346549   -0.014141735
     21        1           0.013757270    0.008322226    0.002161048
     22        1          -0.007325011    0.002154123    0.009780476
     23        1           0.005170009   -0.009937397    0.002100062
     24        6           0.038761667   -0.032131477   -0.052431762
[...]
 Alpha virt. eigenvalues --    3.41666   3.42192   3.43122   3.44410   3.45288
 Alpha virt. eigenvalues --    3.46403   3.47931   3.49104   3.50720   3.50878
 Alpha virt. eigenvalues --    3.52395   3.52705   3.53563   3.54563   3.55752
 Alpha virt. eigenvalues --    3.56493   3.57938   3.59028   3.59091   3.60842
 Alpha virt. eigenvalues --    3.62149   3.62710   3.63428   3.64843   3.65961
 Alpha virt. eigenvalues --    3.69049   3.69426   3.70686   3.71342   3.71722
 Alpha virt. eigenvalues --    3.73592   3.74193   3.75972   3.76670   3.78105
 Alpha virt. eigenvalues --    3.78719   3.79697   3.80819   3.81801   3.82404
 Alpha virt. eigenvalues --    3.83482   3.84288   3.85347   3.87280   3.88159
 Alpha virt. eigenvalues --    3.88696   3.89664   3.90841   3.92056   3.92539
 Alpha virt. eigenvalues --    3.93131   3.94724   3.95763   3.96152   3.97876
 Alpha virt. eigenvalues --    3.98592   3.99351   3.99994   4.01926   4.02631
 Alpha virt. eigenvalues --    4.03670   4.04306   4.05131   4.05612   4.06409
 Alpha virt. eigenvalues --    4.06604   4.07631   4.08726   4.09280   4.09598
 Alpha virt. eigenvalues --    4.11336   4.13823   4.15272   4.15649   4.17066
 Alpha virt. eigenvalues --    4.17704   4.17926   4.19133   4.19747   4.21107
 Alpha virt. eigenvalues --    4.21974   4.23323   4.24992   4.26564   4.27258
 Alpha virt. eigenvalues --    4.28000   4.29368   4.31040   4.31916   4.33039
 Alpha virt. eigenvalues --    4.33654   4.35581   4.36690   4.37147   4.39949
 Alpha virt. eigenvalues --    4.41468   4.42115   4.43550   4.45863   4.47965
 Alpha virt. eigenvalues --    4.49094   4.49912   4.52456   4.52527   4.54890
 Alpha virt. eigenvalues --    4.56328   4.62308   4.63361   4.64287   4.64831
 Alpha virt. eigenvalues --    4.66077   4.66750   4.67878   4.70442   4.72318
 Alpha virt. eigenvalues --    4.73463   4.73541   4.73782   4.75264   4.76117
 Alpha virt. eigenvalues --    4.78214   4.79056   4.79421   4.80880   4.81612
 Alpha virt. eigenvalues --    4.83373   4.85118   4.85496   4.87701   4.88620
 Alpha virt. eigenvalues --    4.90962   4.92479   4.93715   4.94863   4.96941
 Alpha virt. eigenvalues --    4.97769   4.98414   4.98781   5.00035   5.01489
 Alpha virt. eigenvalues --    5.02147   5.03449   5.03932   5.04054   5.05806
 Alpha virt. eigenvalues --    5.07087   5.10433   5.12237   5.14271   5.15276
 Alpha virt. eigenvalues --    5.16135   5.17293   5.18830   5.20100   5.20307
 Alpha virt. eigenvalues --    5.21566   5.22642   5.23337   5.25809   5.26439
 Alpha virt. eigenvalues --    5.27138   5.28488   5.29590   5.29839   5.32082
 Alpha virt. eigenvalues --    5.33577   5.34401   5.36771   5.38121   5.38399
 Alpha virt. eigenvalues --    5.41109   5.42764   5.46144   5.46720   5.49204
 Alpha virt. eigenvalues --    5.53855   5.57096   5.58808   5.60330   5.62837
 Alpha virt. eigenvalues --    5.62994   5.63333   5.66354   5.66678   5.69395
 Alpha virt. eigenvalues --    5.72224   5.73133   5.75180   5.77884   5.78438
 Alpha virt. eigenvalues --    5.79922   5.80759   5.82395   5.83683   5.86360
 Alpha virt. eigenvalues --    5.86542   5.93335   5.95297   5.99197   6.01563
 Alpha virt. eigenvalues --    6.02297   6.06656   6.07178   6.11954   6.22618
 Alpha virt. eigenvalues --    6.25129   6.28099   6.28739   6.31942   6.38576
 Alpha virt. eigenvalues --    6.46089   6.46717   6.48951   6.52158   6.54180
 Alpha virt. eigenvalues --    6.56665   6.59014   6.66144   6.66421   6.86211
 Alpha virt. eigenvalues --    6.88678   6.89566   6.90841   6.91750   6.93272
 Alpha virt. eigenvalues --    6.97907   7.09062   7.10446   7.12622   7.15588
 Alpha virt. eigenvalues --    7.18193   7.21692   9.22432   9.68125   9.76357
 Alpha virt. eigenvalues --   11.96518  12.59909  12.72054  12.83352  12.99773
 Alpha virt. eigenvalues --   13.15034  13.28289  13.43725  13.64457  13.77637
 Alpha virt. eigenvalues --   14.02478
          Condensed to atoms (all electrons):
              1          2          3          4          5          6
     1  C    4.477445   0.126082  -0.017795  -0.021381  -0.018457  -0.002623
     2  C    0.126082   5.566452   0.395954   0.395941   0.161445  -0.019393
     3  H   -0.017795   0.395954   0.505393  -0.022582  -0.045884   0.004402
     4  H   -0.021381   0.395941  -0.022582   0.511429  -0.028054  -0.002291
     5  C   -0.018457   0.161445  -0.045884  -0.028054   5.503873   0.406645
     6  H   -0.002623  -0.019393   0.004402  -0.002291   0.406645   0.451097
     7  H   -0.003878  -0.042220   0.000566   0.005522   0.387609  -0.018454
     8  C    0.002049  -0.033832   0.012492  -0.010257   0.110777  -0.048819
     9  H    0.000183  -0.003041   0.001922   0.000278  -0.028726   0.004903
    10  C    0.000277   0.002955   0.000917  -0.000095  -0.049430   0.007507
    11  N    0.444267  -0.102795  -0.003158   0.004253   0.003242   0.000628
    12  H   -0.022575   0.008053  -0.000154   0.000719  -0.000385  -0.000002
    13  H   -0.031374   0.018930  -0.000484  -0.000658  -0.001056  -0.000046
    14  N    0.001693   0.010687  -0.001076  -0.000280  -0.042913  -0.003733
    15  H    0.000035  -0.000551  -0.000193  -0.000128   0.009213  -0.000092
    16  O    0.000004  -0.000260  -0.000018   0.000003   0.007790  -0.000480
    17  O    0.757021  -0.120219   0.000131   0.002475   0.006305   0.000894
    18  N   -0.000016   0.000056  -0.000043  -0.000028   0.003933   0.002106
    19  H    0.000036   0.000099  -0.000025  -0.000083   0.006688  -0.001970
    20  C   -0.000005   0.000045   0.000003   0.000002  -0.001498  -0.000384
    21  H    0.000000   0.000002   0.000000   0.000000   0.000431   0.000087
    22  H    0.000000  -0.000007   0.000000   0.000000  -0.000418  -0.000130
    23  H    0.000000   0.000015   0.000000   0.000000  -0.000481  -0.000031
    24  C   -0.000241  -0.002620  -0.000043   0.000027  -0.008975  -0.004363
    25  C   -0.000042  -0.000210  -0.000044   0.000184   0.000372   0.000589
    26  H    0.000012   0.000245   0.000006  -0.000100  -0.000574  -0.000081
    27  H    0.000001   0.000016   0.000003   0.000026  -0.000061  -0.000033
    28  H    0.000000  -0.000037  -0.000006   0.000021   0.000116  -0.000008
    29  O   -0.000564  -0.002726   0.000067   0.001854   0.002421   0.016452
              7          8          9         10         11         12
     1  C   -0.003878   0.002049   0.000183   0.000277   0.444267  -0.022575
     2  C   -0.042220  -0.033832  -0.003041   0.002955  -0.102795   0.008053
     3  H    0.000566   0.012492   0.001922   0.000917  -0.003158  -0.000154
     4  H    0.005522  -0.010257   0.000278  -0.000095   0.004253   0.000719
     5  C    0.387609   0.110777  -0.028726  -0.049430   0.003242  -0.000385
     6  H   -0.018454  -0.048819   0.004903   0.007507   0.000628  -0.000002
     7  H    0.487299  -0.027958  -0.008513  -0.002411   0.002106  -0.000230
     8  C   -0.027958   5.398891   0.410841   0.288916   0.000007  -0.000137
     9  H   -0.008513   0.410841   0.490545  -0.015325   0.000004  -0.000001
    10  C   -0.002411   0.288916  -0.015325   4.533708   0.000006   0.000000
    11  N    0.002106   0.000007   0.000004   0.000006   6.235366   0.372687
    12  H   -0.000230  -0.000137  -0.000001   0.000000   0.372687   0.533255
    13  H   -0.000210   0.000012  -0.000001   0.000000   0.365493  -0.036732
    14  N    0.002884   0.229522  -0.035627  -0.058194  -0.000012   0.000007
    15  H   -0.000101  -0.028808  -0.009244  -0.001639   0.000001  -0.000002
    16  O   -0.000110  -0.091427  -0.001043   0.733706   0.000000   0.000000
    17  O    0.026475   0.000366   0.000103   0.000007  -0.123182   0.005182
    18  N   -0.000345  -0.079528  -0.002770   0.363706   0.000000   0.000000
    19  H   -0.002144  -0.003319  -0.000009  -0.019034  -0.000008   0.000001
    20  C    0.000232   0.008499  -0.000184  -0.055896   0.000000   0.000000
    21  H   -0.000143  -0.001043   0.000094   0.003467   0.000000   0.000000
    22  H    0.000190   0.000490  -0.000027   0.001602   0.000000   0.000000
    23  H   -0.000049   0.003931  -0.000076  -0.012791   0.000000   0.000000
    24  C    0.000707  -0.051081   0.004774  -0.007016  -0.000061   0.000010
    25  C    0.000064   0.007939  -0.000528  -0.001400   0.000000   0.000003
    26  H   -0.000006   0.001331   0.000003   0.000067   0.000000   0.000000
    27  H    0.000002  -0.002029   0.000061   0.001040   0.000000   0.000000
    28  H   -0.000003  -0.000610   0.000023  -0.000062   0.000000   0.000000
    29  O    0.001084   0.002392  -0.000118   0.005998   0.000004  -0.000003
             13         14         15         16         17         18
     1  C   -0.031374   0.001693   0.000035   0.000004   0.757021  -0.000016
     2  C    0.018930   0.010687  -0.000551  -0.000260  -0.120219   0.000056
     3  H   -0.000484  -0.001076  -0.000193  -0.000018   0.000131  -0.000043
     4  H   -0.000658  -0.000280  -0.000128   0.000003   0.002475  -0.000028
     5  C   -0.001056  -0.042913   0.009213   0.007790   0.006305   0.003933
     6  H   -0.000046  -0.003733  -0.000092  -0.000480   0.000894   0.002106
     7  H   -0.000210   0.002884  -0.000101  -0.000110   0.026475  -0.000345
     8  C    0.000012   0.229522  -0.028808  -0.091427   0.000366  -0.079528
     9  H   -0.000001  -0.035627  -0.009244  -0.001043   0.000103  -0.002770
    10  C    0.000000  -0.058194  -0.001639   0.733706   0.000007   0.363706
    11  N    0.365493  -0.000012   0.000001   0.000000  -0.123182   0.000000
    12  H   -0.036732   0.000007  -0.000002   0.000000   0.005182   0.000000
    13  H    0.541438   0.000003   0.000000   0.000000   0.011553   0.000000
    14  N    0.000003   6.571968   0.369871  -0.004776  -0.000036   0.008638
    15  H    0.000000   0.369871   0.545906   0.006819   0.000002   0.000648
    16  O    0.000000  -0.004776   0.006819   7.843343   0.000000  -0.121508
    17  O    0.011553  -0.000036   0.000002   0.000000   7.805174   0.000005
    18  N    0.000000   0.008638   0.000648  -0.121508   0.000005   6.462226
    19  H    0.000000   0.000296  -0.000120   0.004667  -0.000096   0.381448
    20  C    0.000000  -0.000288   0.000006  -0.016860   0.000001   0.271852
    21  H    0.000000  -0.000001   0.000000   0.000035   0.000000  -0.033347
    22  H    0.000000   0.000022  -0.000001   0.000048   0.000000  -0.037955
    23  H    0.000000  -0.000117  -0.000032   0.030717   0.000000  -0.040390
    24  C    0.000003   0.312091  -0.014381   0.013475  -0.000018  -0.002704
    25  C    0.000000  -0.095995   0.002973  -0.003199   0.000000  -0.000125
    26  H    0.000000   0.015069  -0.004841  -0.000114   0.000000  -0.000009
    27  H    0.000000  -0.002662  -0.000711   0.003436   0.000000   0.000042
    28  H    0.000000   0.007016   0.000138   0.000044   0.000000   0.000010
    29  O    0.000000  -0.133392   0.004955  -0.001844   0.000002  -0.002929
             19         20         21         22         23         24
     1  C    0.000036  -0.000005   0.000000   0.000000   0.000000  -0.000241
     2  C    0.000099   0.000045   0.000002  -0.000007   0.000015  -0.002620
     3  H   -0.000025   0.000003   0.000000   0.000000   0.000000  -0.000043
     4  H   -0.000083   0.000002   0.000000   0.000000   0.000000   0.000027
     5  C    0.006688  -0.001498   0.000431  -0.000418  -0.000481  -0.008975
     6  H   -0.001970  -0.000384   0.000087  -0.000130  -0.000031  -0.004363
     7  H   -0.002144   0.000232  -0.000143   0.000190  -0.000049   0.000707
     8  C   -0.003319   0.008499  -0.001043   0.000490   0.003931  -0.051081
     9  H   -0.000009  -0.000184   0.000094  -0.000027  -0.000076   0.004774
    10  C   -0.019034  -0.055896   0.003467   0.001602  -0.012791  -0.007016
    11  N   -0.000008   0.000000   0.000000   0.000000   0.000000  -0.000061
    12  H    0.000001   0.000000   0.000000   0.000000   0.000000   0.000010
    13  H    0.000000   0.000000   0.000000   0.000000   0.000000   0.000003
    14  N    0.000296  -0.000288  -0.000001   0.000022  -0.000117   0.312091
    15  H   -0.000120   0.000006   0.000000  -0.000001  -0.000032  -0.014381
    16  O    0.004667  -0.016860   0.000035   0.000048   0.030717   0.013475
    17  O   -0.000096   0.000001   0.000000   0.000000   0.000000  -0.000018
    18  N    0.381448   0.271852  -0.033347  -0.037955  -0.040390  -0.002704
    19  H    0.505073  -0.029845  -0.004394  -0.003902   0.005962   0.000136
    20  C   -0.029845   4.802398   0.399695   0.403082   0.395939   0.000096
    21  H   -0.004394   0.399695   0.607995  -0.043667  -0.023006  -0.000016
    22  H   -0.003902   0.403082  -0.043667   0.610612  -0.029672   0.000114
    23  H    0.005962   0.395939  -0.023006  -0.029672   0.541716  -0.000097
    24  C    0.000136   0.000096  -0.000016   0.000114  -0.000097   4.587709
    25  C   -0.000002  -0.000003   0.000000   0.000000   0.000013   0.284767
    26  H    0.000001   0.000001   0.000000   0.000000   0.000000  -0.051590
    27  H   -0.000005   0.000012   0.000000   0.000001  -0.000011  -0.019747
    28  H    0.000001   0.000000   0.000000   0.000000  -0.000001  -0.037908
    29  O   -0.000395  -0.000111   0.000000   0.000049   0.000013   0.724611
             25         26         27         28         29
     1  C   -0.000042   0.000012   0.000001   0.000000  -0.000564
     2  C   -0.000210   0.000245   0.000016  -0.000037  -0.002726
     3  H   -0.000044   0.000006   0.000003  -0.000006   0.000067
     4  H    0.000184  -0.000100   0.000026   0.000021   0.001854
     5  C    0.000372  -0.000574  -0.000061   0.000116   0.002421
     6  H    0.000589  -0.000081  -0.000033  -0.000008   0.016452
     7  H    0.000064  -0.000006   0.000002  -0.000003   0.001084
     8  C    0.007939   0.001331  -0.002029  -0.000610   0.002392
     9  H   -0.000528   0.000003   0.000061   0.000023  -0.000118
    10  C   -0.001400   0.000067   0.001040  -0.000062   0.005998
    11  N    0.000000   0.000000   0.000000   0.000000   0.000004
    12  H    0.000003   0.000000   0.000000   0.000000  -0.000003
    13  H    0.000000   0.000000   0.000000   0.000000   0.000000
    14  N   -0.095995   0.015069  -0.002662   0.007016  -0.133392
    15  H    0.002973  -0.004841  -0.000711   0.000138   0.004955
    16  O   -0.003199  -0.000114   0.003436   0.000044  -0.001844
    17  O    0.000000   0.000000   0.000000   0.000000   0.000002
    18  N   -0.000125  -0.000009   0.000042   0.000010  -0.002929
    19  H   -0.000002   0.000001  -0.000005   0.000001  -0.000395
    20  C   -0.000003   0.000001   0.000012   0.000000  -0.000111
    21  H    0.000000   0.000000   0.000000   0.000000   0.000000
    22  H    0.000000   0.000000   0.000001   0.000000   0.000049
    23  H    0.000013   0.000000  -0.000011  -0.000001   0.000013
    24  C    0.284767  -0.051590  -0.019747  -0.037908   0.724611
    25  C    5.049349   0.388928   0.374929   0.393146  -0.069486
    26  H    0.388928   0.600475  -0.031640  -0.024518   0.002665
    27  H    0.374929  -0.031640   0.555928  -0.013590  -0.000628
    28  H    0.393146  -0.024518  -0.013590   0.552041   0.007374
    29  O   -0.069486   0.002665  -0.000628   0.007374   7.812740
 Mulliken atomic charges:
              1
     1  C    0.309845
     2  C   -0.359065
     3  H    0.169650
     4  H    0.163203
     5  C   -0.383949
     6  H    0.207621
     7  H    0.192035
     8  C   -0.099608
     9  H    0.191500
    10  C    0.279415
    11  N   -0.198848
    12  H    0.140303
    13  H    0.133128
    14  N   -0.150665
    15  H    0.120278
    16  O   -0.402447
    17  O   -0.372146
    18  N   -0.172971
    19  H    0.160946
    20  C   -0.176787
    21  H    0.093811
    22  H    0.099567
    23  H    0.128446
    24  C    0.272339
    25  C   -0.332220
    26  H    0.104667
    27  H    0.135622
    28  H    0.116813
    29  O   -0.370486
 Sum of Mulliken atomic charges =   0.00000
 Mulliken charges with hydrogens summed into heavy atoms:
              1
     1  C    0.309845
     2  C   -0.026212
     5  C    0.015708
     8  C    0.091893
    10  C    0.279415
    11  N    0.074584
    14  N   -0.030387
    16  O   -0.402447
    17  O   -0.372146
    18  N   -0.012025
    20  C    0.145037
    24  C    0.272339
    25  C    0.024882
    29  O   -0.370486
 Sum of Mulliken charges with hydrogens summed into heavy atoms =   0.00000
 Electronic spatial extent (au):  <R**2>=           3561.1158
 Charge=              0.0000 electrons
 Dipole moment (field-independent basis, Debye):
    X=             -1.9935    Y=              2.0457    Z=              1.8499  Tot=              3.4031
 Quadrupole moment (field-independent basis, Debye-Ang):
   XX=            -81.5967   YY=            -74.6240   ZZ=            -84.9762
   XY=            -13.5316   XZ=             -0.3430   YZ=              4.9322
 Traceless Quadrupole moment (field-independent basis, Debye-Ang):
   XX=             -1.1977   YY=              5.7750   ZZ=             -4.5773
   XY=            -13.5316   XZ=             -0.3430   YZ=              4.9322
 Octapole moment (field-independent basis, Debye-Ang**2):
  XXX=            -89.6923  YYY=             13.8089  ZZZ=             10.9185  XYY=             35.7576
  XXY=             42.1821  XXZ=            -23.1020  XZZ=             -2.7104  YZZ=             -4.8917
  YYZ=             -1.0558  XYZ=             10.6351
 Hexadecapole moment (field-independent basis, Debye-Ang**3):
 XXXX=          -2378.8981 YYYY=          -1388.4753 ZZZZ=           -296.0992 XXXY=           -178.7467
 XXXZ=             37.0318 YYYX=            -51.5713 YYYZ=              6.4330 ZZZX=             11.8272
 ZZZY=             17.8132 XXYY=           -686.6719 XXZZ=           -518.9949 YYZZ=           -294.8872
 XXYZ=              3.0127 YYXZ=             -4.9715 ZZXY=              3.1131
 N-N= 9.444088399955D+02 E-N=-3.533008333767D+03  KE= 6.987958857445D+02
 Calculating spin-rotation constants.
 Leave Link  601 at Sun Mar 17 12:57:00 2013, MaxMem= 2147483648 cpu:      77.0
 (Enter C:\G09W\l9999.exe)

 Test job not archived.
 1|1|UNPC-IMOEN|SP|RM06|Gen|C8H15N3O3|ZENAWI|17-Mar-2013|0||#P Geom=All
 Check Guess=TCheck SCRF=Check GenChk RM06/ChkBas NMR=ReadFC IOp(3/6=22
 )||J-coupling calculation 1||0,1|C,0,-0.2491795915,-1.5119175979,0.641
 4820196|C,0,-0.3929619121,-0.0082763161,0.5520310807|H,0,-1.4302549582
 ,0.1976386452,0.2613464367|H,0,0.2318784669,0.3897794237,-0.2508164041
 |C,0,-0.0713064181,0.6652142047,1.8671513803|H,0,1.0025180378,0.605997
 5193,2.0498257414|H,0,-0.5765208444,0.0990763833,2.6544549842|C,0,-0.5
 311319902,2.113486688,1.9201052754|H,0,-1.6275239605,2.1076281355,1.94
 53711542|C,0,-0.1146119936,2.905288702,3.1688602946|N,0,-0.0162356042,
 -2.1292995903,-0.5459453701|H,0,0.1669180282,-1.6154123569,-1.38706338
 14|H,0,0.0884695289,-3.1286216923,-0.5500509329|N,0,-0.1761911401,2.88
 53311519,0.7407385703|H,0,-0.8266087885,3.6189911689,0.5103652464|O,0,
 -0.1395575562,4.1178132945,3.1508143444|O,0,-0.3698444095,-2.126299470
 6,1.6767932337|N,0,0.1991135166,2.1773584286,4.2629950928|H,0,0.288586
 9689,1.1812817202,4.1696468557|C,0,0.5843190713,2.7928128527,5.5092000
 147|H,0,-0.001868995,2.3957311501,6.3382179092|H,0,1.6434036072,2.6382
 22994,5.7215927889|H,0,0.4009605819,3.8607988494,5.4225807797|C,0,1.13
 91096589,3.1881826743,0.5000232841|C,0,1.3512621299,4.3499255026,-0.42
 75871448|H,0,0.6013808464,4.3931244007,-1.2173947983|H,0,1.2791112262,
 5.2686009889,0.1583119561|H,0,2.3457535226,4.2930497306,-0.8608353607|
 O,0,2.0505940105,2.5701742951,1.0025273091||Version=EM64W-G09RevC.01|S
 tate=1-A|HF=-703.6695955|RMSD=6.136e-009|Dipole=-0.6291035,-0.2057396,
 -1.1638522|Quadrupole=-4.998784,-7.0234747,12.0222587,-2.5782828,1.940
 5239,3.2076991|PG=C01 [X(C8H15N3O3)]||@


 PICNIC:  A SNACK IN THE GRASS.
 Job cpu time:  0 days 20 hours 57 minutes  3.0 seconds.
 File lengths (MBytes):  RWF=   2081 Int=      0 D2E=      0 Chk=     52 Scr=      1
 Normal termination of Gaussian 09 at Sun Mar 17 12:57:01 2013.
