 Entering Gaussian System, Link 0=g09
 Input=glutamic.com
 Output=glutamic.log
 Initial command:
 /system/software/linux-x86_64/gaussian/g09/D.01__pgi_12.10__atlas/l1.exe "/export/home/spin_dynamics/kuprov/zenawi/Gau-7063.inp" -scrdir="/export/home/spin_dynamics/kuprov/zenawi/"
 Entering Link 1 = /system/software/linux-x86_64/gaussian/g09/D.01__pgi_12.10__atlas/l1.exe PID=      7064.
  
 Copyright (c) 1988,1990,1992,1993,1995,1998,2003,2009,2013,
            Gaussian, Inc.  All Rights Reserved.
  
 This is part of the Gaussian(R) 09 program.  It is based on
 the Gaussian(R) 03 system (copyright 2003, Gaussian, Inc.),
 the Gaussian(R) 98 system (copyright 1998, Gaussian, Inc.),
 the Gaussian(R) 94 system (copyright 1995, Gaussian, Inc.),
 the Gaussian 92(TM) system (copyright 1992, Gaussian, Inc.),
 the Gaussian 90(TM) system (copyright 1990, Gaussian, Inc.),
 the Gaussian 88(TM) system (copyright 1988, Gaussian, Inc.),
 the Gaussian 86(TM) system (copyright 1986, Carnegie Mellon
 University), and the Gaussian 82(TM) system (copyright 1983,
 Carnegie Mellon University). Gaussian is a federally registered
 trademark of Gaussian, Inc.
  
 This software contains proprietary and confidential information,
 including trade secrets, belonging to Gaussian, Inc.
  
 This software is provided under written license and may be
 used, copied, transmitted, or stored only in accord with that
 written license.
  
 The following legend is applicable only to US Government
 contracts under FAR:
  
                    RESTRICTED RIGHTS LEGEND
  
 Use, reproduction and disclosure by the US Government is
 subject to restrictions as set forth in subparagraphs (a)
 and (c) of the Commercial Computer Software - Restricted
 Rights clause in FAR 52.227-19.
  
 Gaussian, Inc.
 340 Quinnipiac St., Bldg. 40, Wallingford CT 06492
  
  
 ---------------------------------------------------------------
 Warning -- This program may not be used in any manner that
 competes with the business of Gaussian, Inc. or will provide
 assistance to any competitor of Gaussian, Inc.  The licensee
 of this program is prohibited from giving any competitor of
 Gaussian, Inc. access to this program.  By using this program,
 the user acknowledges that Gaussian, Inc. is engaged in the
 business of creating and licensing software in the field of
 computational chemistry and represents and warrants to the
 licensee that it is not a competitor of Gaussian, Inc. and that
 it will not use this program in any manner prohibited above.
 ---------------------------------------------------------------
  

 Cite this work as:
 Gaussian 09, Revision D.01,
 M. J. Frisch, G. W. Trucks, H. B. Schlegel, G. E. Scuseria, 
 M. A. Robb, J. R. Cheeseman, G. Scalmani, V. Barone, B. Mennucci, 
 G. A. Petersson, H. Nakatsuji, M. Caricato, X. Li, H. P. Hratchian, 
 A. F. Izmaylov, J. Bloino, G. Zheng, J. L. Sonnenberg, M. Hada, 
 M. Ehara, K. Toyota, R. Fukuda, J. Hasegawa, M. Ishida, T. Nakajima, 
 Y. Honda, O. Kitao, H. Nakai, T. Vreven, J. A. Montgomery, Jr., 
 J. E. Peralta, F. Ogliaro, M. Bearpark, J. J. Heyd, E. Brothers, 
 K. N. Kudin, V. N. Staroverov, T. Keith, R. Kobayashi, J. Normand, 
 K. Raghavachari, A. Rendell, J. C. Burant, S. S. Iyengar, J. Tomasi, 
 M. Cossi, N. Rega, J. M. Millam, M. Klene, J. E. Knox, J. B. Cross, 
 V. Bakken, C. Adamo, J. Jaramillo, R. Gomperts, R. E. Stratmann, 
 O. Yazyev, A. J. Austin, R. Cammi, C. Pomelli, J. W. Ochterski, 
 R. L. Martin, K. Morokuma, V. G. Zakrzewski, G. A. Voth, 
 P. Salvador, J. J. Dannenberg, S. Dapprich, A. D. Daniels, 
 O. Farkas, J. B. Foresman, J. V. Ortiz, J. Cioslowski, 
 and D. J. Fox, Gaussian, Inc., Wallingford CT, 2013.
 
 ******************************************
 Gaussian 09:  EM64L-G09RevD.01 24-Apr-2013
                 3-Oct-2013 
 ******************************************
 %Chk=glutamic_acid.chk
 %Mem=128GB
 %NProcShared=24
 Will use up to   24 processors via shared memory.
 ----------------------------------------------------------
 #p opt=tight m06/cc-pvtz scf=tight integral=grid=ultrafine
 ----------------------------------------------------------
 1/7=10,14=-1,18=20,19=15,26=4,38=1/1,3;
 2/9=110,12=2,17=6,18=5,40=1/2;
 3/5=16,6=1,11=2,16=1,25=1,30=1,71=1,74=-54,75=-5/1,2,3;
 4//1;
 5/5=2,32=2,38=5/2;
 6/7=2,8=2,9=2,10=2,28=1/1;
 7//1,2,3,16;
 1/7=10,14=-1,18=20,19=15,26=4/3(2);
 2/9=110/2;
 99//99;
 2/9=110/2;
 3/5=16,6=1,11=2,16=1,25=1,30=1,71=1,74=-54,75=-5/1,2,3;
 4/5=5,16=3,69=1/1;
 5/5=2,32=2,38=5/2;
 7//1,2,3,16;
 1/7=10,14=-1,18=20,19=15,26=4/3(-5);
 2/9=110/2;
 6/7=2,8=2,9=2,10=2,19=2,28=1/1;
 99/9=1/99;
 Leave Link    1 at Thu Oct  3 09:42:14 2013, MaxMem= 17179869184 cpu:         3.5
 (Enter /system/software/linux-x86_64/gaussian/g09/D.01__pgi_12.10__atlas/l101.exe)
 ---------------------
 Geometry optimisation
 ---------------------
 Symbolic Z-matrix:
 Charge =  0 Multiplicity = 1
 C                     4.82106   1.24215   0.63695 
 C                     4.12163   1.71887   1.92348 
 H                     4.61039   1.29207   2.77428 
 C                     4.19288   3.25492   2.0075 
 H                     3.70412   3.68171   1.1567 
 H                     5.2171    3.56416   2.02281 
 C                     3.49345   3.73163   3.29403 
 H                     3.9822    3.30484   4.14483 
 H                     2.46922   3.42239   3.27872 
 C                     3.56469   5.26769   3.37805 
 O                     3.59974   5.91312   4.65363 
 H                     4.09043   6.73521   4.58291 
 O                     3.59206   5.95488   2.32421 
 O                     4.83286   1.97923  -0.38292 
 N                     2.71452   1.29402   1.90245 
 H                     1.91357   1.68993   1.45331 
 N                     5.47492  -0.07391   0.60028 
 H                     5.37086  -0.52267   1.48785 
 C                     2.64652  -0.17221   1.82225 
 C                     1.45607  -0.85052   1.11915 
 H                     1.77484  -1.7794    0.69435 
 H                     0.67789  -1.03214   1.83074 
 H                     1.08835  -0.2113    0.34386 
 C                     6.35774  -0.14993  -0.57265 
 H                     7.10183   0.61637  -0.50926 
 H                     6.83367  -1.10788  -0.59934 
 H                     5.78031  -0.01361  -1.46309 
 O                     3.56107  -0.87312   2.32811 
 
 NAtoms=     28 NQM=       28 NQMF=       0 NMMI=      0 NMMIF=      0
                NMic=       0 NMicF=      0.
                    Isotopes and Nuclear Properties:
 (Nuclear quadrupole moments (NQMom) in fm**2, nuclear magnetic moments (NMagM)
  in nuclear magnetons)

  Atom         1           2           3           4           5           6           7           8           9          10
 IAtWgt=          12          12           1          12           1           1          12           1           1          12
 AtmWgt=  12.0000000  12.0000000   1.0078250  12.0000000   1.0078250   1.0078250  12.0000000   1.0078250   1.0078250  12.0000000
 NucSpn=           0           0           1           0           1           1           0           1           1           0
 AtZEff=   0.0000000   0.0000000   0.0000000   0.0000000   0.0000000   0.0000000   0.0000000   0.0000000   0.0000000   0.0000000
 NQMom=    0.0000000   0.0000000   0.0000000   0.0000000   0.0000000   0.0000000   0.0000000   0.0000000   0.0000000   0.0000000
 NMagM=    0.0000000   0.0000000   2.7928460   0.0000000   2.7928460   2.7928460   0.0000000   2.7928460   2.7928460   0.0000000
 AtZNuc=   6.0000000   6.0000000   1.0000000   6.0000000   1.0000000   1.0000000   6.0000000   1.0000000   1.0000000   6.0000000

  Atom        11          12          13          14          15          16          17          18          19          20
 IAtWgt=          16           1          16          16          14           1          14           1          12          12
 AtmWgt=  15.9949146   1.0078250  15.9949146  15.9949146  14.0030740   1.0078250  14.0030740   1.0078250  12.0000000  12.0000000
 NucSpn=           0           1           0           0           2           1           2           1           0           0
 AtZEff=   0.0000000   0.0000000   0.0000000   0.0000000   0.0000000   0.0000000   0.0000000   0.0000000   0.0000000   0.0000000
 NQMom=    0.0000000   0.0000000   0.0000000   0.0000000   2.0440000   0.0000000   2.0440000   0.0000000   0.0000000   0.0000000
 NMagM=    0.0000000   2.7928460   0.0000000   0.0000000   0.4037610   2.7928460   0.4037610   2.7928460   0.0000000   0.0000000
 AtZNuc=   8.0000000   1.0000000   8.0000000   8.0000000   7.0000000   1.0000000   7.0000000   1.0000000   6.0000000   6.0000000

  Atom        21          22          23          24          25          26          27          28
 IAtWgt=           1           1           1          12           1           1           1          16
 AtmWgt=   1.0078250   1.0078250   1.0078250  12.0000000   1.0078250   1.0078250   1.0078250  15.9949146
 NucSpn=           1           1           1           0           1           1           1           0
 AtZEff=   0.0000000   0.0000000   0.0000000   0.0000000   0.0000000   0.0000000   0.0000000   0.0000000
 NQMom=    0.0000000   0.0000000   0.0000000   0.0000000   0.0000000   0.0000000   0.0000000   0.0000000
 NMagM=    2.7928460   2.7928460   2.7928460   0.0000000   2.7928460   2.7928460   2.7928460   0.0000000
 AtZNuc=   1.0000000   1.0000000   1.0000000   6.0000000   1.0000000   1.0000000   1.0000000   8.0000000
 Leave Link  101 at Thu Oct  3 09:42:16 2013, MaxMem= 17179869184 cpu:        53.0
 (Enter /system/software/linux-x86_64/gaussian/g09/D.01__pgi_12.10__atlas/l103.exe)

 GradGradGradGradGradGradGradGradGradGradGradGradGradGradGradGradGradGrad
 Berny optimization.
 Initialization pass.
                           ----------------------------
                           !    Initial Parameters    !
                           ! (Angstroms and Degrees)  !
 --------------------------                            --------------------------
 ! Name  Definition              Value          Derivative Info.                !
 --------------------------------------------------------------------------------
 ! R1    R(1,2)                  1.54           estimate D2E/DX2                !
 ! R2    R(1,14)                 1.2584         estimate D2E/DX2                !
 ! R3    R(1,17)                 1.47           estimate D2E/DX2                !
 ! R4    R(2,3)                  1.07           estimate D2E/DX2                !
 ! R5    R(2,4)                  1.54           estimate D2E/DX2                !
 ! R6    R(2,15)                 1.47           estimate D2E/DX2                !
 ! R7    R(4,5)                  1.07           estimate D2E/DX2                !
 ! R8    R(4,6)                  1.07           estimate D2E/DX2                !
 ! R9    R(4,7)                  1.54           estimate D2E/DX2                !
 ! R10   R(7,8)                  1.07           estimate D2E/DX2                !
 ! R11   R(7,9)                  1.07           estimate D2E/DX2                !
 ! R12   R(7,10)                 1.54           estimate D2E/DX2                !
 ! R13   R(10,11)                1.43           estimate D2E/DX2                !
 ! R14   R(10,13)                1.2584         estimate D2E/DX2                !
 ! R15   R(11,12)                0.96           estimate D2E/DX2                !
 ! R16   R(15,16)                1.0            estimate D2E/DX2                !
 ! R17   R(15,19)                1.47           estimate D2E/DX2                !
 ! R18   R(17,18)                1.0            estimate D2E/DX2                !
 ! R19   R(17,24)                1.47           estimate D2E/DX2                !
 ! R20   R(19,20)                1.54           estimate D2E/DX2                !
 ! R21   R(19,28)                1.2584         estimate D2E/DX2                !
 ! R22   R(20,21)                1.07           estimate D2E/DX2                !
 ! R23   R(20,22)                1.07           estimate D2E/DX2                !
 ! R24   R(20,23)                1.07           estimate D2E/DX2                !
 ! R25   R(24,25)                1.07           estimate D2E/DX2                !
 ! R26   R(24,26)                1.07           estimate D2E/DX2                !
 ! R27   R(24,27)                1.07           estimate D2E/DX2                !
 ! A1    A(2,1,14)             120.0            estimate D2E/DX2                !
 ! A2    A(2,1,17)             120.0            estimate D2E/DX2                !
 ! A3    A(14,1,17)            120.0            estimate D2E/DX2                !
 ! A4    A(1,2,3)              109.4712         estimate D2E/DX2                !
 ! A5    A(1,2,4)              109.4712         estimate D2E/DX2                !
 ! A6    A(1,2,15)             109.4712         estimate D2E/DX2                !
 ! A7    A(3,2,4)              109.4712         estimate D2E/DX2                !
 ! A8    A(3,2,15)             109.4712         estimate D2E/DX2                !
 ! A9    A(4,2,15)             109.4712         estimate D2E/DX2                !
 ! A10   A(2,4,5)              109.4712         estimate D2E/DX2                !
 ! A11   A(2,4,6)              109.4712         estimate D2E/DX2                !
 ! A12   A(2,4,7)              109.4712         estimate D2E/DX2                !
 ! A13   A(5,4,6)              109.4712         estimate D2E/DX2                !
 ! A14   A(5,4,7)              109.4712         estimate D2E/DX2                !
 ! A15   A(6,4,7)              109.4712         estimate D2E/DX2                !
 ! A16   A(4,7,8)              109.4712         estimate D2E/DX2                !
 ! A17   A(4,7,9)              109.4712         estimate D2E/DX2                !
 ! A18   A(4,7,10)             109.4712         estimate D2E/DX2                !
 ! A19   A(8,7,9)              109.4712         estimate D2E/DX2                !
 ! A20   A(8,7,10)             109.4712         estimate D2E/DX2                !
 ! A21   A(9,7,10)             109.4712         estimate D2E/DX2                !
 ! A22   A(7,10,11)            120.0            estimate D2E/DX2                !
 ! A23   A(7,10,13)            120.0            estimate D2E/DX2                !
 ! A24   A(11,10,13)           120.0            estimate D2E/DX2                !
 ! A25   A(10,11,12)           109.4712         estimate D2E/DX2                !
 ! A26   A(2,15,16)            131.2            estimate D2E/DX2                !
 ! A27   A(2,15,19)            109.4712         estimate D2E/DX2                !
 ! A28   A(16,15,19)           109.4712         estimate D2E/DX2                !
 ! A29   A(1,17,18)            109.4712         estimate D2E/DX2                !
 ! A30   A(1,17,24)            109.4712         estimate D2E/DX2                !
 ! A31   A(18,17,24)           138.3734         estimate D2E/DX2                !
 ! A32   A(15,19,20)           120.0            estimate D2E/DX2                !
 ! A33   A(15,19,28)           120.0            estimate D2E/DX2                !
 ! A34   A(20,19,28)           120.0            estimate D2E/DX2                !
 ! A35   A(19,20,21)           109.4712         estimate D2E/DX2                !
 ! A36   A(19,20,22)           109.4712         estimate D2E/DX2                !
 ! A37   A(19,20,23)           109.4712         estimate D2E/DX2                !
 ! A38   A(21,20,22)           109.4712         estimate D2E/DX2                !
 ! A39   A(21,20,23)           109.4712         estimate D2E/DX2                !
 ! A40   A(22,20,23)           109.4712         estimate D2E/DX2                !
 ! A41   A(17,24,25)           109.4712         estimate D2E/DX2                !
 ! A42   A(17,24,26)           109.4712         estimate D2E/DX2                !
 ! A43   A(17,24,27)           109.4712         estimate D2E/DX2                !
 ! A44   A(25,24,26)           109.4712         estimate D2E/DX2                !
 ! A45   A(25,24,27)           109.4712         estimate D2E/DX2                !
 ! A46   A(26,24,27)           109.4712         estimate D2E/DX2                !
 ! D1    D(14,1,2,3)          -150.0            estimate D2E/DX2                !
 ! D2    D(14,1,2,4)           -30.0            estimate D2E/DX2                !
 ! D3    D(14,1,2,15)           90.0            estimate D2E/DX2                !
 ! D4    D(17,1,2,3)            30.0            estimate D2E/DX2                !
 ! D5    D(17,1,2,4)           150.0            estimate D2E/DX2                !
 ! D6    D(17,1,2,15)          -90.0            estimate D2E/DX2                !
 ! D7    D(2,1,17,18)            0.0            estimate D2E/DX2                !
 ! D8    D(2,1,17,24)         -165.0            estimate D2E/DX2                !
 ! D9    D(14,1,17,18)         180.0            estimate D2E/DX2                !
 ! D10   D(14,1,17,24)          15.0            estimate D2E/DX2                !
 ! D11   D(1,2,4,5)             60.0            estimate D2E/DX2                !
 ! D12   D(1,2,4,6)            -60.0            estimate D2E/DX2                !
 ! D13   D(1,2,4,7)            180.0            estimate D2E/DX2                !
 ! D14   D(3,2,4,5)            180.0            estimate D2E/DX2                !
 ! D15   D(3,2,4,6)             60.0            estimate D2E/DX2                !
 ! D16   D(3,2,4,7)            -60.0            estimate D2E/DX2                !
 ! D17   D(15,2,4,5)           -60.0            estimate D2E/DX2                !
 ! D18   D(15,2,4,6)           180.0            estimate D2E/DX2                !
 ! D19   D(15,2,4,7)            60.0            estimate D2E/DX2                !
 ! D20   D(1,2,15,16)          -81.206          estimate D2E/DX2                !
 ! D21   D(1,2,15,19)           60.0            estimate D2E/DX2                !
 ! D22   D(3,2,15,16)          158.794          estimate D2E/DX2                !
 ! D23   D(3,2,15,19)          -60.0            estimate D2E/DX2                !
 ! D24   D(4,2,15,16)           38.794          estimate D2E/DX2                !
 ! D25   D(4,2,15,19)         -180.0            estimate D2E/DX2                !
 ! D26   D(2,4,7,8)             60.0            estimate D2E/DX2                !
 ! D27   D(2,4,7,9)            -60.0            estimate D2E/DX2                !
 ! D28   D(2,4,7,10)           180.0            estimate D2E/DX2                !
 ! D29   D(5,4,7,8)            180.0            estimate D2E/DX2                !
 ! D30   D(5,4,7,9)             60.0            estimate D2E/DX2                !
 ! D31   D(5,4,7,10)           -60.0            estimate D2E/DX2                !
 ! D32   D(6,4,7,8)            -60.0            estimate D2E/DX2                !
 ! D33   D(6,4,7,9)            180.0            estimate D2E/DX2                !
 ! D34   D(6,4,7,10)            60.0            estimate D2E/DX2                !
 ! D35   D(4,7,10,11)         -150.0            estimate D2E/DX2                !
 ! D36   D(4,7,10,13)           30.0            estimate D2E/DX2                !
 ! D37   D(8,7,10,11)          -30.0            estimate D2E/DX2                !
 ! D38   D(8,7,10,13)          150.0            estimate D2E/DX2                !
 ! D39   D(9,7,10,11)           90.0            estimate D2E/DX2                !
 ! D40   D(9,7,10,13)          -90.0            estimate D2E/DX2                !
 ! D41   D(7,10,11,12)         150.0            estimate D2E/DX2                !
 ! D42   D(13,10,11,12)        -30.0            estimate D2E/DX2                !
 ! D43   D(2,15,19,20)        -150.0            estimate D2E/DX2                !
 ! D44   D(2,15,19,28)          30.0            estimate D2E/DX2                !
 ! D45   D(16,15,19,20)          0.0            estimate D2E/DX2                !
 ! D46   D(16,15,19,28)        180.0            estimate D2E/DX2                !
 ! D47   D(1,17,24,25)          60.0            estimate D2E/DX2                !
 ! D48   D(1,17,24,26)         180.0            estimate D2E/DX2                !
 ! D49   D(1,17,24,27)         -60.0            estimate D2E/DX2                !
 ! D50   D(18,17,24,25)        -98.4481         estimate D2E/DX2                !
 ! D51   D(18,17,24,26)         21.5519         estimate D2E/DX2                !
 ! D52   D(18,17,24,27)        141.5519         estimate D2E/DX2                !
 ! D53   D(15,19,20,21)        150.0            estimate D2E/DX2                !
 ! D54   D(15,19,20,22)        -90.0            estimate D2E/DX2                !
 ! D55   D(15,19,20,23)         30.0            estimate D2E/DX2                !
 ! D56   D(28,19,20,21)        -30.0            estimate D2E/DX2                !
 ! D57   D(28,19,20,22)         90.0            estimate D2E/DX2                !
 ! D58   D(28,19,20,23)       -150.0            estimate D2E/DX2                !
 --------------------------------------------------------------------------------
 Trust Radius=3.00D-01 FncErr=1.00D-07 GrdErr=1.00D-06
 Number of steps in this run=    141 maximum allowed number of steps=    168.
 GradGradGradGradGradGradGradGradGradGradGradGradGradGradGradGradGradGrad

 Leave Link  103 at Thu Oct  3 09:42:19 2013, MaxMem= 17179869184 cpu:         0.7
 (Enter /system/software/linux-x86_64/gaussian/g09/D.01__pgi_12.10__atlas/l202.exe)
                          Input orientation:                          
 ---------------------------------------------------------------------
 Center     Atomic      Atomic             Coordinates (Angstroms)
 Number     Number       Type             X           Y           Z
 ---------------------------------------------------------------------
      1          6           0        4.821063    1.242151    0.636954
      2          6           0        4.121633    1.718866    1.923477
      3          1           0        4.610390    1.292073    2.774279
      4          6           0        4.192876    3.254920    2.007504
      5          1           0        3.704119    3.681714    1.156702
      6          1           0        5.217100    3.564162    2.022807
      7          6           0        3.493445    3.731635    3.294027
      8          1           0        3.982202    3.304842    4.144829
      9          1           0        2.469221    3.422393    3.278725
     10          6           0        3.564688    5.267689    3.378054
     11          8           0        3.599741    5.913122    4.653628
     12          1           0        4.090426    6.735209    4.582913
     13          8           0        3.592056    5.954885    2.324212
     14          8           0        4.832863    1.979232   -0.382921
     15          7           0        2.714521    1.294019    1.902454
     16          1           0        1.913568    1.689927    1.453309
     17          7           0        5.474918   -0.073914    0.600276
     18          1           0        5.370859   -0.522671    1.487851
     19          6           0        2.646517   -0.172215    1.822246
     20          6           0        1.456070   -0.850518    1.119153
     21          1           0        1.774838   -1.779403    0.694348
     22          1           0        0.677892   -1.032143    1.830737
     23          1           0        1.088350   -0.211295    0.343861
     24          6           0        6.357738   -0.149931   -0.572648
     25          1           0        7.101826    0.616368   -0.509264
     26          1           0        6.833673   -1.107884   -0.599345
     27          1           0        5.780312   -0.013611   -1.463094
     28          8           0        3.561068   -0.873120    2.328111
 ---------------------------------------------------------------------
                    Distance matrix (angstroms):
                    1          2          3          4          5
     1  C    0.000000
     2  C    1.540000   0.000000
     3  H    2.148263   1.070000   0.000000
     4  C    2.514809   1.540000   2.148263   0.000000
     5  H    2.732978   2.148263   3.024610   1.070000   0.000000
     6  H    2.732978   2.148263   2.468846   1.070000   1.747303
     7  C    3.875582   2.514809   2.732978   1.540000   2.148263
     8  H    4.154945   2.732978   2.514809   2.148263   3.024610
     9  H    4.154945   2.732978   3.062243   2.148263   2.468846
    10  C    5.029619   3.875582   4.154945   2.514809   2.732978
    11  O    6.280387   5.031688   5.089937   3.797343   4.149526
    12  H    6.802801   5.677788   5.759276   4.330778   4.605648
    13  O    5.154334   4.287762   4.793890   2.784079   2.557918
    14  O    1.258400   2.427572   3.238764   2.784079   2.557918
    15  N    2.457987   1.470000   2.086720   2.457987   2.690081
    16  H    3.052944   2.257753   3.029207   2.819855   2.694673
    17  N    1.470000   2.606971   2.709173   3.834718   4.189282
    18  H    2.034920   2.602849   2.350852   3.990975   4.534814
    19  C    2.852017   2.400500   2.628174   3.764412   4.051448
    20  C    3.991862   3.788654   4.156906   5.013372   5.059274
    21  H    4.290988   4.388176   4.669093   5.737220   5.810309
    22  H    4.874772   4.408628   4.664417   5.546645   5.642058
    23  H    4.016411   3.927023   4.535616   4.941704   4.760092
    24  C    2.400500   3.837083   4.041599   4.789241   4.971303
    25  H    2.628174   4.001910   4.176780   4.664555   4.869928
    26  H    3.331921   4.659432   4.699374   5.727437   5.984819
    27  H    2.628174   4.149886   4.585723   5.024769   4.982904
    28  O    2.986968   2.682602   2.447081   4.188400   4.705228
                    6          7          8          9         10
     6  H    0.000000
     7  C    2.148263   0.000000
     8  H    2.468846   1.070000   0.000000
     9  H    3.024610   1.070000   1.747303   0.000000
    10  C    2.732978   1.540000   2.148263   2.148263   0.000000
    11  O    3.880036   2.572683   2.684824   3.061399   1.430000
    12  H    4.228366   3.322510   3.459921   3.912028   1.970203
    13  O    2.906401   2.427572   3.238764   2.930080   1.258400
    14  O    2.906401   4.287762   4.793890   4.590987   5.154334
    15  N    3.380966   2.912931   3.267823   2.546422   4.323220
    16  H    3.840626   3.170619   3.759185   2.577272   4.385342
    17  N    3.914801   5.066037   5.119380   5.332210   6.316467
    18  H    4.124564   4.988594   4.861868   5.214428   6.353220
    19  C    4.539673   4.257167   4.389575   3.882521   5.732027
    20  C    5.869526   5.465995   5.727397   4.893668   6.854295
    21  H    6.493663   6.331151   6.528998   5.849773   7.750313
    22  H    6.462764   5.723822   5.923084   5.014820   7.100399
    23  H    5.841191   5.480389   5.931691   4.870720   6.734824
    24  C    4.672465   6.182386   6.311356   6.535682   7.263594
    25  H    4.318920   6.098387   6.214542   6.609362   7.018360
    26  H    5.596160   7.052405   7.078857   7.389944   8.194749
    27  H    5.026846   6.472003   6.759744   6.727131   7.499190
    28  O    4.746065   4.705458   4.575280   4.532905   6.229923
                   11         12         13         14         15
    11  O    0.000000
    12  H    0.960000   0.000000
    13  O    2.329803   2.441108   0.000000
    14  O    6.508679   6.915927   4.967292   0.000000
    15  N    5.448732   6.219688   4.761472   3.190583   0.000000
    16  H    5.560629   6.323607   4.665368   3.460884   1.000000
    17  N    7.469307   8.008893   6.547026   2.365231   3.344652
    18  H    7.387722   7.993482   6.769223   3.169975   3.244748
    19  C    6.779136   7.577510   6.219917   3.777775   1.470000
    20  C    7.926832   8.745326   7.233817   4.654722   2.606971
    21  H    8.842008   9.642692   8.110360   4.963805   3.433431
    22  H    8.046280   8.919172   7.586464   5.588599   3.092577
    23  H    7.898713   8.673866   6.943494   4.398636   2.709173
    24  C    8.466470   8.895261   7.301341   2.625753   4.635100
    25  H    8.183866   8.511111   6.989051   2.649822   5.052132
    26  H    9.345938   9.792615   8.302889   3.685155   5.384752
    27  H    8.791777   9.217185   7.399669   2.456798   4.736653
    28  O    7.173744   7.953052   6.828077   4.135585   2.365231
                   16         17         18         19         20
    16  H    0.000000
    17  N    4.064728   0.000000
    18  H    4.104832   1.000000   0.000000
    19  C    2.034920   3.082649   2.767070   0.000000
    20  C    2.602849   4.125953   3.945757   1.540000   0.000000
    21  H    3.554085   4.075309   3.891066   2.148263   1.070000
    22  H    3.013140   5.044175   4.732977   2.148263   1.070000
    23  H    2.350852   4.396203   4.443597   2.148263   1.070000
    24  C    5.219217   1.470000   2.314848   4.416919   5.232529
    25  H    5.649978   2.086720   2.877869   5.089949   6.056242
    26  H    6.020679   2.086720   2.615088   4.926648   5.651380
    27  H    5.134117   2.086720   3.022395   4.543048   5.105632
    28  O    3.169975   2.699438   2.025882   1.258400   2.427572
                   21         22         23         24         25
    21  H    0.000000
    22  H    1.747303   0.000000
    23  H    1.747303   1.747303   0.000000
    24  C    5.026274   6.230185   5.348851   0.000000
    25  H    5.963658   7.032789   6.129824   1.070000   0.000000
    26  H    5.264637   6.618510   5.890861   1.070000   1.747303
    27  H    4.880205   6.158037   5.031766   1.070000   1.747303
    28  O    2.584792   2.930080   3.238764   4.093747   4.775589
                   26         27         28
    26  H    0.000000
    27  H    1.747303   0.000000
    28  O    4.397165   4.476275   0.000000
 Stoichiometry    C8H14N2O4
 Framework group  C1[X(C8H14N2O4)]
 Deg. of freedom    78
 Full point group                 C1      NOp   1
 Largest Abelian subgroup         C1      NOp   1
 Largest concise Abelian subgroup C1      NOp   1
                         Standard orientation:                         
 ---------------------------------------------------------------------
 Center     Atomic      Atomic             Coordinates (Angstroms)
 Number     Number       Type             X           Y           Z
 ---------------------------------------------------------------------
      1          6           0        1.263807   -1.060244    0.109510
      2          6           0        0.207742   -0.029797   -0.331520
      3          1           0        0.256372    0.098922   -1.392635
      4          6           0       -1.194321   -0.531548    0.060992
      5          1           0       -1.242950   -0.660268    1.122107
      6          1           0       -1.386093   -1.467406   -0.420975
      7          6           0       -2.250385    0.498899   -0.380038
      8          1           0       -2.201756    0.627619   -1.441154
      9          1           0       -2.058613    1.434758    0.101929
     10          6           0       -3.652449   -0.002851    0.012473
     11          8           0       -4.788999    0.362868   -0.774549
     12          1           0       -5.448038   -0.333617   -0.727900
     13          8           0       -3.797971   -0.734685    1.025791
     14          8           0        1.057362   -1.778975    1.121625
     15          7           0        0.471205    1.255915    0.330622
     16          1           0        0.244965    1.582826    1.248197
     17          7           0        2.513027   -1.204267   -0.651809
     18          1           0        2.512317   -0.561809   -1.418130
     19          6           0        1.809538    1.734858   -0.044048
     20          6           0        2.619828    2.601805    0.937499
     21          1           0        3.665062    2.431234    0.784883
     22          1           0        2.398454    3.634757    0.767491
     23          1           0        2.358962    2.341783    1.942107
     24          6           0        3.177501   -2.458788   -0.270296
     25          1           0        2.531556   -3.284256   -0.485371
     26          1           0        4.086797   -2.563620   -0.824454
     27          1           0        3.397814   -2.441641    0.776637
     28          8           0        2.293102    1.436440   -1.166849
 ---------------------------------------------------------------------
 Rotational constants (GHZ):      0.9919882      0.3355286      0.2802076
 Leave Link  202 at Thu Oct  3 09:42:20 2013, MaxMem= 17179869184 cpu:         1.1
 (Enter /system/software/linux-x86_64/gaussian/g09/D.01__pgi_12.10__atlas/l301.exe)
 Standard basis: CC-pVTZ (5D, 7F)
 Ernie: Thresh=  0.10000D-02 Tol=  0.10000D-05 Strict=F.
 Ernie:  42 primitive shells out of 476 were deleted.
 There are   700 symmetry adapted cartesian basis functions of A   symmetry.
 There are   616 symmetry adapted basis functions of A   symmetry.
   616 basis functions,   966 primitive gaussians,   700 cartesian basis functions
    54 alpha electrons       54 beta electrons
       nuclear repulsion energy       919.6891317317 Hartrees.
 IExCor= 4235 DFT=T Ex+Corr=M06 ExCW=0 ScaHFX=  0.270000
 ScaDFX=  1.000000  1.000000  1.000000  1.000000 ScalE2=  1.000000  1.000000
 IRadAn=      5 IRanWt=     -1 IRanGd=            0 ICorTp=0 IEmpDi=  4
 NAtoms=   28 NActive=   28 NUniq=   28 SFac= 1.00D+00 NAtFMM=   60 NAOKFM=F Big=F
 Integral buffers will be    131072 words long.
 Raffenetti 2 integral format.
 Two-electron integral symmetry is turned on.
 Leave Link  301 at Thu Oct  3 09:42:27 2013, MaxMem= 17179869184 cpu:        21.7
 (Enter /system/software/linux-x86_64/gaussian/g09/D.01__pgi_12.10__atlas/l302.exe)
 NPDir=0 NMtPBC=     1 NCelOv=     1 NCel=       1 NClECP=     1 NCelD=      1
         NCelK=      1 NCelE2=     1 NClLst=     1 CellRange=     0.0.
 One-electron integrals computed using PRISM.
 NBasis=   616 RedAO= T EigKep=  1.56D-04  NBF=   616
 NBsUse=   616 1.00D-06 EigRej= -1.00D+00 NBFU=   616
 Precomputing XC quadrature grid using
 IXCGrd= 4 IRadAn=           5 IRanWt=          -1 IRanGd=           0 AccXCQ= 0.00D+00.
 Generated NRdTot=       0 NPtTot=           0 NUsed=           0 NTot=          32
 NSgBfM=   698   698   698   698   698 MxSgAt=    28 MxSgA2=    28.
 Leave Link  302 at Thu Oct  3 09:42:32 2013, MaxMem= 17179869184 cpu:        67.3
 (Enter /system/software/linux-x86_64/gaussian/g09/D.01__pgi_12.10__atlas/l303.exe)
 DipDrv:  MaxL=1.
 Leave Link  303 at Thu Oct  3 09:42:33 2013, MaxMem= 17179869184 cpu:         5.5
 (Enter /system/software/linux-x86_64/gaussian/g09/D.01__pgi_12.10__atlas/l401.exe)
 ExpMin= 1.03D-01 ExpMax= 1.53D+04 ExpMxC= 5.22D+02 IAcc=3 IRadAn=         5 AccDes= 0.00D+00
 Harris functional with IExCor= 1009 and IRadAn=       5 diagonalized for initial guess.
 HarFok:  IExCor= 1009 AccDes= 0.00D+00 IRadAn=         5 IDoV= 1 UseB2=F ITyADJ=14
 ICtDFT=  3500011 ScaDFX=  1.000000  1.000000  1.000000  1.000000
 FoFCou: FMM=F IPFlag=           0 FMFlag=      100000 FMFlg1=           0
         NFxFlg=           0 DoJE=T BraDBF=F KetDBF=T FulRan=T
         wScrn=  0.000000 ICntrl=     500 IOpCl=  0 I1Cent=   200000004 NGrid=           0
         NMat0=    1 NMatS0=      1 NMatT0=    0 NMatD0=    1 NMtDS0=    0 NMtDT0=    0
 Petite list used in FoFCou.
 Harris En= -723.338244825806    
 JPrj=0 DoOrth=F DoCkMO=F.
 Leave Link  401 at Thu Oct  3 09:42:39 2013, MaxMem= 17179869184 cpu:       143.2
 (Enter /system/software/linux-x86_64/gaussian/g09/D.01__pgi_12.10__atlas/l502.exe)
 Closed shell SCF:
 Using DIIS extrapolation, IDIIS=  1040.
 Integral symmetry usage will be decided dynamically.
 IVT=     1510446 IEndB=     1510446 NGot= 17179869184 MDV= 17178866079
 LenX= 17178866079 LenY= 17178375379
 Requested convergence on RMS density matrix=1.00D-08 within 128 cycles.
 Requested convergence on MAX density matrix=1.00D-06.
 Requested convergence on             energy=1.00D-06.
 No special actions if energy rises.
 Fock matrices will be formed incrementally for  20 cycles.
 Integral accuracy reduced to 1.0D-05 until final iterations.

 Cycle   1  Pass 0  IDiag  1:
 FoFJK:  IHMeth= 1 ICntrl=       0 DoSepK=F KAlg= 0 I1Cent=   0 FoldK=F
 IRaf= 800000000 NMat=   1 IRICut=       1 DoRegI=T DoRafI=F ISym2E= 0.
 FoFCou: FMM=F IPFlag=           0 FMFlag=      100000 FMFlg1=           0
         NFxFlg=           0 DoJE=F BraDBF=F KetDBF=F FulRan=T
         wScrn=  0.000000 ICntrl=       0 IOpCl=  0 I1Cent=           0 NGrid=           0
         NMat0=    1 NMatS0=      1 NMatT0=    0 NMatD0=    1 NMtDS0=    0 NMtDT0=    0
 Symmetry not used in FoFCou.
 E= -723.082918914872    
 DIIS: error= 2.59D-02 at cycle   1 NSaved=   1.
 NSaved= 1 IEnMin= 1 EnMin= -723.082918914872     IErMin= 1 ErrMin= 2.59D-02
 ErrMax= 2.59D-02  0.00D+00 EMaxC= 1.00D-01 BMatC= 5.07D-01 BMatP= 5.07D-01
 IDIUse=3 WtCom= 7.41D-01 WtEn= 2.59D-01
 Coeff-Com:  0.100D+01
 Coeff-En:   0.100D+01
 Coeff:      0.100D+01
 Gap=     0.233 Goal=   None    Shift=    0.000
 GapD=    0.233 DampG=1.000 DampE=0.500 DampFc=0.5000 IDamp=-1.
 Damping current iteration by 5.00D-01
 RMSDP=2.36D-03 MaxDP=1.94D-01              OVMax= 2.42D-01

 Cycle   2  Pass 0  IDiag  1:
 RMSU=  1.18D-03    CP:  1.00D+00
 E= -723.174001056812     Delta-E=       -0.091082141939 Rises=F Damp=T
 DIIS: error= 6.08D-03 at cycle   2 NSaved=   2.
 NSaved= 2 IEnMin= 2 EnMin= -723.174001056812     IErMin= 2 ErrMin= 6.08D-03
 ErrMax= 6.08D-03  0.00D+00 EMaxC= 1.00D-01 BMatC= 8.56D-02 BMatP= 5.07D-01
 IDIUse=3 WtCom= 9.39D-01 WtEn= 6.08D-02
 Coeff-Com:  0.238D+00 0.762D+00
 Coeff-En:   0.377D+00 0.623D+00
 Coeff:      0.247D+00 0.753D+00
 Gap=     0.284 Goal=   None    Shift=    0.000
 RMSDP=6.53D-04 MaxDP=3.14D-02 DE=-9.11D-02 OVMax= 1.93D-01

 Cycle   3  Pass 0  IDiag  1:
 RMSU=  5.47D-04    CP:  1.00D+00  6.97D-01
 E= -723.418025665379     Delta-E=       -0.244024608567 Rises=F Damp=F
 DIIS: error= 7.46D-03 at cycle   3 NSaved=   3.
 NSaved= 3 IEnMin= 3 EnMin= -723.418025665379     IErMin= 2 ErrMin= 6.08D-03
 ErrMax= 7.46D-03  0.00D+00 EMaxC= 1.00D-01 BMatC= 7.11D-02 BMatP= 8.56D-02
 IDIUse=3 WtCom= 9.25D-01 WtEn= 7.46D-02
 Coeff-Com:  0.809D-01 0.477D+00 0.442D+00
 Coeff-En:   0.000D+00 0.000D+00 0.100D+01
 Coeff:      0.749D-01 0.441D+00 0.484D+00
 Gap=     0.250 Goal=   None    Shift=    0.000
 RMSDP=3.46D-04 MaxDP=1.39D-02 DE=-2.44D-01 OVMax= 6.65D-02

 Cycle   4  Pass 0  IDiag  1:
 RMSU=  2.86D-04    CP:  1.00D+00  7.72D-01  6.80D-01
 E= -723.470505909787     Delta-E=       -0.052480244408 Rises=F Damp=F
 DIIS: error= 1.92D-03 at cycle   4 NSaved=   4.
 NSaved= 4 IEnMin= 4 EnMin= -723.470505909787     IErMin= 4 ErrMin= 1.92D-03
 ErrMax= 1.92D-03  0.00D+00 EMaxC= 1.00D-01 BMatC= 6.49D-03 BMatP= 7.11D-02
 IDIUse=3 WtCom= 9.81D-01 WtEn= 1.92D-02
 Coeff-Com:  0.109D-01 0.118D+00 0.260D+00 0.611D+00
 Coeff-En:   0.000D+00 0.000D+00 0.542D-01 0.946D+00
 Coeff:      0.107D-01 0.116D+00 0.256D+00 0.618D+00
 Gap=     0.242 Goal=   None    Shift=    0.000
 RMSDP=9.43D-05 MaxDP=4.51D-03 DE=-5.25D-02 OVMax= 2.01D-02

 Cycle   5  Pass 0  IDiag  1:
 RMSU=  5.91D-05    CP:  1.00D+00  7.45D-01  7.60D-01  8.24D-01
 E= -723.474777648694     Delta-E=       -0.004271738907 Rises=F Damp=F
 DIIS: error= 6.02D-04 at cycle   5 NSaved=   5.
 NSaved= 5 IEnMin= 5 EnMin= -723.474777648694     IErMin= 5 ErrMin= 6.02D-04
 ErrMax= 6.02D-04  0.00D+00 EMaxC= 1.00D-01 BMatC= 7.09D-04 BMatP= 6.49D-03
 IDIUse=3 WtCom= 9.94D-01 WtEn= 6.02D-03
 Coeff-Com: -0.834D-03 0.204D-01 0.976D-01 0.349D+00 0.534D+00
 Coeff-En:   0.000D+00 0.000D+00 0.000D+00 0.489D-01 0.951D+00
 Coeff:     -0.829D-03 0.202D-01 0.970D-01 0.347D+00 0.537D+00
 Gap=     0.242 Goal=   None    Shift=    0.000
 RMSDP=3.30D-05 MaxDP=1.53D-03 DE=-4.27D-03 OVMax= 6.29D-03

 Cycle   6  Pass 0  IDiag  1:
 RMSU=  1.76D-05    CP:  1.00D+00  7.56D-01  7.54D-01  8.36D-01  5.91D-01
 E= -723.475322653979     Delta-E=       -0.000545005285 Rises=F Damp=F
 DIIS: error= 1.80D-04 at cycle   6 NSaved=   6.
 NSaved= 6 IEnMin= 6 EnMin= -723.475322653979     IErMin= 6 ErrMin= 1.80D-04
 ErrMax= 1.80D-04  0.00D+00 EMaxC= 1.00D-01 BMatC= 5.05D-05 BMatP= 7.09D-04
 IDIUse=3 WtCom= 9.98D-01 WtEn= 1.80D-03
 Coeff-Com: -0.125D-02-0.742D-03 0.233D-01 0.105D+00 0.270D+00 0.604D+00
 Coeff-En:   0.000D+00 0.000D+00 0.000D+00 0.000D+00 0.000D+00 0.100D+01
 Coeff:     -0.125D-02-0.740D-03 0.233D-01 0.105D+00 0.269D+00 0.605D+00
 Gap=     0.242 Goal=   None    Shift=    0.000
 RMSDP=1.01D-05 MaxDP=5.72D-04 DE=-5.45D-04 OVMax= 1.53D-03

 Cycle   7  Pass 0  IDiag  1:
 RMSU=  8.31D-06    CP:  1.00D+00  7.57D-01  7.56D-01  8.38D-01  6.53D-01
                    CP:  7.77D-01
 E= -723.475352272786     Delta-E=       -0.000029618806 Rises=F Damp=F
 DIIS: error= 8.82D-05 at cycle   7 NSaved=   7.
 NSaved= 7 IEnMin= 7 EnMin= -723.475352272786     IErMin= 7 ErrMin= 8.82D-05
 ErrMax= 8.82D-05  0.00D+00 EMaxC= 1.00D-01 BMatC= 1.29D-05 BMatP= 5.05D-05
 IDIUse=1 WtCom= 1.00D+00 WtEn= 0.00D+00
 Coeff-Com: -0.597D-03-0.255D-02 0.470D-02 0.288D-01 0.122D+00 0.398D+00
 Coeff-Com:  0.450D+00
 Coeff:     -0.597D-03-0.255D-02 0.470D-02 0.288D-01 0.122D+00 0.398D+00
 Coeff:      0.450D+00
 Gap=     0.242 Goal=   None    Shift=    0.000
 RMSDP=4.64D-06 MaxDP=3.53D-04 DE=-2.96D-05 OVMax= 9.21D-04

 Initial convergence to 1.0D-05 achieved.  Increase integral accuracy.
 Cycle   8  Pass 1  IDiag  1:
 E= -723.475434508563     Delta-E=       -0.000082235777 Rises=F Damp=F
 DIIS: error= 6.32D-05 at cycle   1 NSaved=   1.
 NSaved= 1 IEnMin= 1 EnMin= -723.475434508563     IErMin= 1 ErrMin= 6.32D-05
 ErrMax= 6.32D-05  0.00D+00 EMaxC= 1.00D-01 BMatC= 5.50D-06 BMatP= 5.50D-06
 IDIUse=1 WtCom= 1.00D+00 WtEn= 0.00D+00
 Coeff-Com:  0.100D+01
 Coeff:      0.100D+01
 Gap=     0.242 Goal=   None    Shift=    0.000
 RMSDP=4.64D-06 MaxDP=3.53D-04 DE=-8.22D-05 OVMax= 5.61D-04

 Cycle   9  Pass 1  IDiag  1:
 RMSU=  3.95D-05    CP:  1.00D+00
 E= -723.475435882668     Delta-E=       -0.000001374105 Rises=F Damp=F
 DIIS: error= 4.38D-05 at cycle   2 NSaved=   2.
 NSaved= 2 IEnMin= 2 EnMin= -723.475435882668     IErMin= 2 ErrMin= 4.38D-05
 ErrMax= 4.38D-05  0.00D+00 EMaxC= 1.00D-01 BMatC= 3.26D-06 BMatP= 5.50D-06
 IDIUse=1 WtCom= 1.00D+00 WtEn= 0.00D+00
 Coeff-Com:  0.406D+00 0.594D+00
 Coeff:      0.406D+00 0.594D+00
 Gap=     0.242 Goal=   None    Shift=    0.000
 RMSDP=3.33D-06 MaxDP=1.67D-04 DE=-1.37D-06 OVMax= 5.99D-04

 Cycle  10  Pass 1  IDiag  1:
 RMSU=  3.31D-06    CP:  1.00D+00  1.01D+00
 E= -723.475436425573     Delta-E=       -0.000000542906 Rises=F Damp=F
 DIIS: error= 3.95D-05 at cycle   3 NSaved=   3.
 NSaved= 3 IEnMin= 3 EnMin= -723.475436425573     IErMin= 3 ErrMin= 3.95D-05
 ErrMax= 3.95D-05  0.00D+00 EMaxC= 1.00D-01 BMatC= 2.51D-06 BMatP= 3.26D-06
 IDIUse=1 WtCom= 1.00D+00 WtEn= 0.00D+00
 Coeff-Com:  0.177D-01 0.463D+00 0.519D+00
 Coeff:      0.177D-01 0.463D+00 0.519D+00
 Gap=     0.242 Goal=   None    Shift=    0.000
 RMSDP=1.74D-06 MaxDP=1.04D-04 DE=-5.43D-07 OVMax= 3.04D-04

 Cycle  11  Pass 1  IDiag  1:
 RMSU=  6.30D-07    CP:  1.00D+00  1.02D+00  5.24D-01
 E= -723.475438214677     Delta-E=       -0.000001789103 Rises=F Damp=F
 DIIS: error= 5.38D-06 at cycle   4 NSaved=   4.
 NSaved= 4 IEnMin= 4 EnMin= -723.475438214677     IErMin= 4 ErrMin= 5.38D-06
 ErrMax= 5.38D-06  0.00D+00 EMaxC= 1.00D-01 BMatC= 6.32D-08 BMatP= 2.51D-06
 IDIUse=1 WtCom= 1.00D+00 WtEn= 0.00D+00
 Coeff-Com: -0.211D-02 0.246D+00 0.299D+00 0.457D+00
 Coeff:     -0.211D-02 0.246D+00 0.299D+00 0.457D+00
 Gap=     0.242 Goal=   None    Shift=    0.000
 RMSDP=2.90D-07 MaxDP=1.33D-05 DE=-1.79D-06 OVMax= 4.42D-05

 Cycle  12  Pass 1  IDiag  1:
 RMSU=  1.86D-07    CP:  1.00D+00  1.02D+00  5.45D-01  6.70D-01
 E= -723.475438265743     Delta-E=       -0.000000051067 Rises=F Damp=F
 DIIS: error= 9.40D-07 at cycle   5 NSaved=   5.
 NSaved= 5 IEnMin= 5 EnMin= -723.475438265743     IErMin= 5 ErrMin= 9.40D-07
 ErrMax= 9.40D-07  0.00D+00 EMaxC= 1.00D-01 BMatC= 1.65D-09 BMatP= 6.32D-08
 IDIUse=1 WtCom= 1.00D+00 WtEn= 0.00D+00
 Coeff-Com: -0.190D-02 0.863D-01 0.109D+00 0.210D+00 0.597D+00
 Coeff:     -0.190D-02 0.863D-01 0.109D+00 0.210D+00 0.597D+00
 Gap=     0.242 Goal=   None    Shift=    0.000
 RMSDP=6.41D-08 MaxDP=3.10D-06 DE=-5.11D-08 OVMax= 1.32D-05

 Cycle  13  Pass 1  IDiag  1:
 RMSU=  6.03D-08    CP:  1.00D+00  1.02D+00  5.44D-01  6.94D-01  9.35D-01
 E= -723.475438266765     Delta-E=       -0.000000001022 Rises=F Damp=F
 DIIS: error= 5.07D-07 at cycle   6 NSaved=   6.
 NSaved= 6 IEnMin= 6 EnMin= -723.475438266765     IErMin= 6 ErrMin= 5.07D-07
 ErrMax= 5.07D-07  0.00D+00 EMaxC= 1.00D-01 BMatC= 4.24D-10 BMatP= 1.65D-09
 IDIUse=1 WtCom= 1.00D+00 WtEn= 0.00D+00
 Coeff-Com: -0.807D-03 0.131D-01 0.183D-01 0.556D-01 0.359D+00 0.555D+00
 Coeff:     -0.807D-03 0.131D-01 0.183D-01 0.556D-01 0.359D+00 0.555D+00
 Gap=     0.242 Goal=   None    Shift=    0.000
 RMSDP=2.95D-08 MaxDP=1.35D-06 DE=-1.02D-09 OVMax= 6.59D-06

 Cycle  14  Pass 1  IDiag  1:
 RMSU=  2.18D-08    CP:  1.00D+00  1.02D+00  5.45D-01  7.06D-01  9.77D-01
                    CP:  7.33D-01
 E= -723.475438267046     Delta-E=       -0.000000000281 Rises=F Damp=F
 DIIS: error= 2.13D-07 at cycle   7 NSaved=   7.
 NSaved= 7 IEnMin= 7 EnMin= -723.475438267046     IErMin= 7 ErrMin= 2.13D-07
 ErrMax= 2.13D-07  0.00D+00 EMaxC= 1.00D-01 BMatC= 5.84D-11 BMatP= 4.24D-10
 IDIUse=1 WtCom= 1.00D+00 WtEn= 0.00D+00
 Coeff-Com: -0.248D-03-0.196D-02-0.146D-02 0.905D-02 0.140D+00 0.333D+00
 Coeff-Com:  0.521D+00
 Coeff:     -0.248D-03-0.196D-02-0.146D-02 0.905D-02 0.140D+00 0.333D+00
 Coeff:      0.521D+00
 Gap=     0.242 Goal=   None    Shift=    0.000
 RMSDP=1.14D-08 MaxDP=5.74D-07 DE=-2.81D-10 OVMax= 1.68D-06

 Cycle  15  Pass 1  IDiag  1:
 RMSU=  7.70D-09    CP:  1.00D+00  1.02D+00  5.45D-01  7.11D-01  9.92D-01
                    CP:  8.05D-01  7.46D-01
 E= -723.475438267113     Delta-E=       -0.000000000067 Rises=F Damp=F
 DIIS: error= 7.67D-08 at cycle   8 NSaved=   8.
 NSaved= 8 IEnMin= 8 EnMin= -723.475438267113     IErMin= 8 ErrMin= 7.67D-08
 ErrMax= 7.67D-08  0.00D+00 EMaxC= 1.00D-01 BMatC= 8.01D-12 BMatP= 5.84D-11
 IDIUse=1 WtCom= 1.00D+00 WtEn= 0.00D+00
 Coeff-Com: -0.988D-05-0.352D-02-0.408D-02-0.408D-02 0.212D-01 0.108D+00
 Coeff-Com:  0.312D+00 0.571D+00
 Coeff:     -0.988D-05-0.352D-02-0.408D-02-0.408D-02 0.212D-01 0.108D+00
 Coeff:      0.312D+00 0.571D+00
 Gap=     0.242 Goal=   None    Shift=    0.000
 RMSDP=3.64D-09 MaxDP=1.56D-07 DE=-6.68D-11 OVMax= 5.02D-07

 SCF Done:  E(RM06) =  -723.475438267     A.U. after   15 cycles
            NFock= 15  Conv=0.36D-08     -V/T= 2.0083
 KE= 7.175157939394D+02 PE=-3.530715404449D+03 EE= 1.170035040511D+03
 Leave Link  502 at Thu Oct  3 09:49:00 2013, MaxMem= 17179869184 cpu:      9021.9
 (Enter /system/software/linux-x86_64/gaussian/g09/D.01__pgi_12.10__atlas/l601.exe)
 Copying SCF densities to generalized density rwf, IOpCl= 0 IROHF=0.

 **********************************************************************

            Population analysis using the SCF density.

 **********************************************************************

 Orbital symmetries:
       Occupied  (A) (A) (A) (A) (A) (A) (A) (A) (A) (A) (A) (A)
                 (A) (A) (A) (A) (A) (A) (A) (A) (A) (A) (A) (A)
                 (A) (A) (A) (A) (A) (A) (A) (A) (A) (A) (A) (A)
                 (A) (A) (A) (A) (A) (A) (A) (A) (A) (A) (A) (A)
                 (A) (A) (A) (A) (A) (A)
       Virtual   (A) (A) (A) (A) (A) (A) (A) (A) (A) (A) (A) (A)
                 (A) (A) (A) (A) (A) (A) (A) (A) (A) (A) (A) (A)
                 (A) (A) (A) (A) (A) (A) (A) (A) (A) (A) (A) (A)
                 (A) (A) (A) (A) (A) (A) (A) (A) (A) (A) (A) (A)
                 (A) (A) (A) (A) (A) (A) (A) (A) (A) (A) (A) (A)
                 (A) (A) (A) (A) (A) (A) (A) (A) (A) (A) (A) (A)
                 (A) (A) (A) (A) (A) (A) (A) (A) (A) (A) (A) (A)
                 (A) (A) (A) (A) (A) (A) (A) (A) (A) (A) (A) (A)
                 (A) (A) (A) (A) (A) (A) (A) (A) (A) (A) (A) (A)
                 (A) (A) (A) (A) (A) (A) (A) (A) (A) (A) (A) (A)
                 (A) (A) (A) (A) (A) (A) (A) (A) (A) (A) (A) (A)
                 (A) (A) (A) (A) (A) (A) (A) (A) (A) (A) (A) (A)
                 (A) (A) (A) (A) (A) (A) (A) (A) (A) (A) (A) (A)
                 (A) (A) (A) (A) (A) (A) (A) (A) (A) (A) (A) (A)
                 (A) (A) (A) (A) (A) (A) (A) (A) (A) (A) (A) (A)
                 (A) (A) (A) (A) (A) (A) (A) (A) (A) (A) (A) (A)
                 (A) (A) (A) (A) (A) (A) (A) (A) (A) (A) (A) (A)
                 (A) (A) (A) (A) (A) (A) (A) (A) (A) (A) (A) (A)
                 (A) (A) (A) (A) (A) (A) (A) (A) (A) (A) (A) (A)
                 (A) (A) (A) (A) (A) (A) (A) (A) (A) (A) (A) (A)
                 (A) (A) (A) (A) (A) (A) (A) (A) (A) (A) (A) (A)
                 (A) (A) (A) (A) (A) (A) (A) (A) (A) (A) (A) (A)
                 (A) (A) (A) (A) (A) (A) (A) (A) (A) (A) (A) (A)
                 (A) (A) (A) (A) (A) (A) (A) (A) (A) (A) (A) (A)
                 (A) (A) (A) (A) (A) (A) (A) (A) (A) (A) (A) (A)
                 (A) (A) (A) (A) (A) (A) (A) (A) (A) (A) (A) (A)
                 (A) (A) (A) (A) (A) (A) (A) (A) (A) (A) (A) (A)
                 (A) (A) (A) (A) (A) (A) (A) (A) (A) (A) (A) (A)
                 (A) (A) (A) (A) (A) (A) (A) (A) (A) (A) (A) (A)
                 (A) (A) (A) (A) (A) (A) (A) (A) (A) (A) (A) (A)
                 (A) (A) (A) (A) (A) (A) (A) (A) (A) (A) (A) (A)
                 (A) (A) (A) (A) (A) (A) (A) (A) (A) (A) (A) (A)
                 (A) (A) (A) (A) (A) (A) (A) (A) (A) (A) (A) (A)
                 (A) (A) (A) (A) (A) (A) (A) (A) (A) (A) (A) (A)
                 (A) (A) (A) (A) (A) (A) (A) (A) (A) (A) (A) (A)
                 (A) (A) (A) (A) (A) (A) (A) (A) (A) (A) (A) (A)
                 (A) (A) (A) (A) (A) (A) (A) (A) (A) (A) (A) (A)
                 (A) (A) (A) (A) (A) (A) (A) (A) (A) (A) (A) (A)
                 (A) (A) (A) (A) (A) (A) (A) (A) (A) (A) (A) (A)
                 (A) (A) (A) (A) (A) (A) (A) (A) (A) (A) (A) (A)
                 (A) (A) (A) (A) (A) (A) (A) (A) (A) (A) (A) (A)
                 (A) (A) (A) (A) (A) (A) (A) (A) (A) (A) (A) (A)
                 (A) (A) (A) (A) (A) (A) (A) (A) (A) (A) (A) (A)
                 (A) (A) (A) (A) (A) (A) (A) (A) (A) (A) (A) (A)
                 (A) (A) (A) (A) (A) (A) (A) (A) (A) (A) (A) (A)
                 (A) (A) (A) (A) (A) (A) (A) (A) (A) (A) (A) (A)
                 (A) (A) (A) (A) (A) (A) (A) (A) (A) (A)
 The electronic state is 1-A.
 Alpha  occ. eigenvalues --  -19.26226 -19.21616 -19.20977 -19.18963 -14.43703
 Alpha  occ. eigenvalues --  -14.40996 -10.39929 -10.37813 -10.35086 -10.30783
 Alpha  occ. eigenvalues --  -10.27064 -10.26067 -10.25994 -10.25379  -1.10373
 Alpha  occ. eigenvalues --   -1.06298  -1.04001  -1.02857  -0.94523  -0.90953
 Alpha  occ. eigenvalues --   -0.82596  -0.77761  -0.74606  -0.70553  -0.65829
 Alpha  occ. eigenvalues --   -0.60821  -0.59737  -0.57342  -0.54105  -0.53261
 Alpha  occ. eigenvalues --   -0.52058  -0.50356  -0.48968  -0.48365  -0.47555
 Alpha  occ. eigenvalues --   -0.46851  -0.45551  -0.44779  -0.43655  -0.43003
 Alpha  occ. eigenvalues --   -0.42937  -0.40892  -0.40282  -0.39435  -0.38338
 Alpha  occ. eigenvalues --   -0.37691  -0.37333  -0.37160  -0.33907  -0.30961
 Alpha  occ. eigenvalues --   -0.29739  -0.29220  -0.26638  -0.26398
 Alpha virt. eigenvalues --   -0.02219  -0.01747  -0.00206   0.01977   0.02947
 Alpha virt. eigenvalues --    0.03992   0.05242   0.06166   0.07778   0.08192
 Alpha virt. eigenvalues --    0.08992   0.09628   0.10557   0.11157   0.11752
 Alpha virt. eigenvalues --    0.12935   0.13480   0.14786   0.15315   0.16849
 Alpha virt. eigenvalues --    0.17638   0.18540   0.19167   0.20951   0.21801
 Alpha virt. eigenvalues --    0.22928   0.24017   0.24928   0.26002   0.26352
 Alpha virt. eigenvalues --    0.26912   0.27105   0.28327   0.29778   0.30088
 Alpha virt. eigenvalues --    0.31012   0.31409   0.32245   0.33515   0.34237
 Alpha virt. eigenvalues --    0.35245   0.36313   0.36911   0.37438   0.38379
 Alpha virt. eigenvalues --    0.38633   0.39406   0.39528   0.40063   0.40223
 Alpha virt. eigenvalues --    0.41357   0.41651   0.41728   0.42129   0.42621
 Alpha virt. eigenvalues --    0.42944   0.43556   0.43900   0.44527   0.45354
 Alpha virt. eigenvalues --    0.45783   0.46898   0.47754   0.49146   0.49646
 Alpha virt. eigenvalues --    0.50081   0.51108   0.51826   0.51988   0.52900
 Alpha virt. eigenvalues --    0.54101   0.54825   0.56053   0.57260   0.58514
 Alpha virt. eigenvalues --    0.59169   0.59864   0.60915   0.61965   0.62957
 Alpha virt. eigenvalues --    0.63161   0.64720   0.65197   0.66377   0.67918
 Alpha virt. eigenvalues --    0.69479   0.70446   0.71390   0.72205   0.73019
 Alpha virt. eigenvalues --    0.73663   0.73905   0.76036   0.76913   0.77098
 Alpha virt. eigenvalues --    0.78363   0.78794   0.79805   0.83229   0.83349
 Alpha virt. eigenvalues --    0.83708   0.84460   0.86492   0.86841   0.87921
 Alpha virt. eigenvalues --    0.89023   0.89548   0.90960   0.91876   0.92856
 Alpha virt. eigenvalues --    0.93673   0.93986   0.94685   0.96084   0.96313
 Alpha virt. eigenvalues --    0.96813   0.98197   0.99374   1.00177   1.01010
 Alpha virt. eigenvalues --    1.02074   1.02788   1.03760   1.05139   1.05537
 Alpha virt. eigenvalues --    1.06406   1.07191   1.08940   1.09857   1.09873
 Alpha virt. eigenvalues --    1.11021   1.11279   1.12971   1.14352   1.14778
 Alpha virt. eigenvalues --    1.15375   1.16473   1.17714   1.18600   1.19980
 Alpha virt. eigenvalues --    1.20752   1.21192   1.22245   1.22660   1.23199
 Alpha virt. eigenvalues --    1.23814   1.24739   1.25013   1.26153   1.27242
 Alpha virt. eigenvalues --    1.27641   1.28693   1.29202   1.30906   1.32446
 Alpha virt. eigenvalues --    1.33289   1.33699   1.34597   1.35460   1.36124
 Alpha virt. eigenvalues --    1.38299   1.38804   1.40460   1.41621   1.41777
 Alpha virt. eigenvalues --    1.43668   1.43727   1.45706   1.46803   1.47601
 Alpha virt. eigenvalues --    1.48311   1.49417   1.51572   1.51806   1.55360
 Alpha virt. eigenvalues --    1.56457   1.57553   1.60659   1.60991   1.62406
 Alpha virt. eigenvalues --    1.64546   1.65180   1.65985   1.68052   1.69900
 Alpha virt. eigenvalues --    1.70737   1.71829   1.73206   1.76393   1.76980
 Alpha virt. eigenvalues --    1.78849   1.79973   1.83091   1.83917   1.86567
 Alpha virt. eigenvalues --    1.88341   1.89870   1.92395   1.94440   1.98445
 Alpha virt. eigenvalues --    2.00362   2.02428   2.03952   2.05113   2.06683
 Alpha virt. eigenvalues --    2.09465   2.10480   2.12436   2.14175   2.15995
 Alpha virt. eigenvalues --    2.18155   2.19202   2.20930   2.21746   2.22318
 Alpha virt. eigenvalues --    2.25921   2.27307   2.29051   2.30574   2.31612
 Alpha virt. eigenvalues --    2.34339   2.36250   2.36952   2.38631   2.39539
 Alpha virt. eigenvalues --    2.39954   2.44531   2.45052   2.45567   2.46540
 Alpha virt. eigenvalues --    2.47081   2.49469   2.51211   2.51532   2.53590
 Alpha virt. eigenvalues --    2.54987   2.56762   2.57873   2.58694   2.60424
 Alpha virt. eigenvalues --    2.61128   2.61733   2.62411   2.63212   2.64415
 Alpha virt. eigenvalues --    2.65547   2.67510   2.69198   2.70677   2.70948
 Alpha virt. eigenvalues --    2.72319   2.73158   2.74170   2.75290   2.76014
 Alpha virt. eigenvalues --    2.77238   2.78490   2.80114   2.81186   2.82261
 Alpha virt. eigenvalues --    2.82882   2.83372   2.83901   2.85738   2.86297
 Alpha virt. eigenvalues --    2.88637   2.89468   2.89967   2.90384   2.93494
 Alpha virt. eigenvalues --    2.94432   2.94695   2.95660   2.96755   2.97444
 Alpha virt. eigenvalues --    2.98162   2.99344   3.00135   3.01091   3.02198
 Alpha virt. eigenvalues --    3.02964   3.03626   3.03947   3.05309   3.05561
 Alpha virt. eigenvalues --    3.05923   3.06358   3.07552   3.08895   3.09815
 Alpha virt. eigenvalues --    3.10923   3.11920   3.12675   3.13172   3.14559
 Alpha virt. eigenvalues --    3.15685   3.16001   3.17492   3.18397   3.19135
 Alpha virt. eigenvalues --    3.21169   3.22260   3.22909   3.23686   3.25213
 Alpha virt. eigenvalues --    3.25541   3.26039   3.27105   3.27798   3.28096
 Alpha virt. eigenvalues --    3.28925   3.30533   3.32232   3.32589   3.33928
 Alpha virt. eigenvalues --    3.34353   3.34633   3.36088   3.37169   3.37495
 Alpha virt. eigenvalues --    3.39917   3.40833   3.40917   3.41299   3.42250
 Alpha virt. eigenvalues --    3.43415   3.44411   3.45698   3.45859   3.47237
 Alpha virt. eigenvalues --    3.48940   3.49365   3.50910   3.53676   3.54523
 Alpha virt. eigenvalues --    3.55334   3.56504   3.57273   3.58367   3.59244
 Alpha virt. eigenvalues --    3.59979   3.62376   3.63963   3.64927   3.65335
 Alpha virt. eigenvalues --    3.66610   3.67648   3.70516   3.71171   3.71945
 Alpha virt. eigenvalues --    3.72127   3.72883   3.74142   3.74504   3.75084
 Alpha virt. eigenvalues --    3.76718   3.77312   3.79020   3.79874   3.80357
 Alpha virt. eigenvalues --    3.81451   3.82075   3.82726   3.83749   3.84458
 Alpha virt. eigenvalues --    3.85798   3.86754   3.88312   3.89227   3.90673
 Alpha virt. eigenvalues --    3.91796   3.92747   3.93516   3.95086   3.95869
 Alpha virt. eigenvalues --    3.97614   3.98809   3.99693   4.01256   4.02224
 Alpha virt. eigenvalues --    4.03191   4.03854   4.04833   4.05372   4.07454
 Alpha virt. eigenvalues --    4.08068   4.08625   4.10407   4.10502   4.10909
 Alpha virt. eigenvalues --    4.11509   4.13356   4.15055   4.16013   4.16461
 Alpha virt. eigenvalues --    4.18457   4.19608   4.20974   4.21400   4.23465
 Alpha virt. eigenvalues --    4.24476   4.24716   4.25339   4.25659   4.27321
 Alpha virt. eigenvalues --    4.28002   4.30146   4.30879   4.31287   4.33253
 Alpha virt. eigenvalues --    4.34843   4.35552   4.35758   4.38833   4.40481
 Alpha virt. eigenvalues --    4.42342   4.43529   4.46932   4.49199   4.49806
 Alpha virt. eigenvalues --    4.52265   4.54599   4.56460   4.58771   4.59015
 Alpha virt. eigenvalues --    4.61687   4.63554   4.65978   4.67344   4.68238
 Alpha virt. eigenvalues --    4.70496   4.72448   4.73212   4.74752   4.75420
 Alpha virt. eigenvalues --    4.76607   4.79244   4.79734   4.80903   4.82821
 Alpha virt. eigenvalues --    4.83491   4.84957   4.86147   4.87377   4.88878
 Alpha virt. eigenvalues --    4.90003   4.92676   4.94576   4.95792   4.97027
 Alpha virt. eigenvalues --    4.97602   4.98478   5.00303   5.01884   5.02346
 Alpha virt. eigenvalues --    5.05096   5.05422   5.06425   5.06774   5.08132
 Alpha virt. eigenvalues --    5.10257   5.11492   5.12210   5.13951   5.15062
 Alpha virt. eigenvalues --    5.17084   5.17811   5.19261   5.19857   5.20153
 Alpha virt. eigenvalues --    5.21408   5.22501   5.23479   5.24727   5.25408
 Alpha virt. eigenvalues --    5.27190   5.28745   5.29451   5.31697   5.32453
 Alpha virt. eigenvalues --    5.33462   5.33597   5.39231   5.41029   5.42452
 Alpha virt. eigenvalues --    5.43012   5.45049   5.46762   5.48515   5.52044
 Alpha virt. eigenvalues --    5.54774   5.55855   5.57343   5.58401   5.59674
 Alpha virt. eigenvalues --    5.61695   5.63746   5.66072   5.69660   5.71584
 Alpha virt. eigenvalues --    5.74873   5.75696   5.77143   5.78088   5.81150
 Alpha virt. eigenvalues --    5.82687   5.84734   5.88296   5.91846   5.94061
 Alpha virt. eigenvalues --    5.96202   5.98534   5.99905   6.02284   6.04904
 Alpha virt. eigenvalues --    6.08284   6.12047   6.12312   6.21123   6.26365
 Alpha virt. eigenvalues --    6.36706   6.42887   6.46338   6.46760   6.47532
 Alpha virt. eigenvalues --    6.48701   6.52093   6.56006   6.59985   6.61836
 Alpha virt. eigenvalues --    6.64523   6.67925   6.68789   6.70405   6.74413
 Alpha virt. eigenvalues --    6.78030   6.83705   6.86960   6.90040   6.90318
 Alpha virt. eigenvalues --    7.03032   7.06926   7.08054   7.09773   7.10997
 Alpha virt. eigenvalues --    7.12333   7.13327   7.35049   8.77175   9.10915
 Alpha virt. eigenvalues --    9.15691  11.51615  11.64968  11.85722  11.89990
 Alpha virt. eigenvalues --   12.27313  12.31314  12.52998  12.77982  13.22778
 Alpha virt. eigenvalues --   13.44677  13.71216
          Condensed to atoms (all electrons):
               1          2          3          4          5          6
     1  C    4.706666   0.275233  -0.042082  -0.072033  -0.003971  -0.000230
     2  C    0.275233   5.303807   0.387498   0.237589  -0.031355  -0.039648
     3  H   -0.042082   0.387498   0.449567   0.000560   0.004873  -0.000111
     4  C   -0.072033   0.237589   0.000560   5.237715   0.394638   0.427135
     5  H   -0.003971  -0.031355   0.004873   0.394638   0.438833  -0.009647
     6  H   -0.000230  -0.039648  -0.000111   0.427135  -0.009647   0.494496
     7  C    0.005338  -0.036544  -0.010254   0.203627  -0.031618  -0.034371
     8  H    0.000410   0.002859  -0.000796  -0.034895   0.003578  -0.001376
     9  H    0.000263  -0.006159  -0.001913  -0.030950  -0.003336   0.003562
    10  C   -0.000483  -0.000069   0.000155  -0.038763  -0.000656  -0.001895
    11  O   -0.000001  -0.000050  -0.000046   0.002356   0.000553   0.000026
    12  H    0.000000  -0.000014   0.000005  -0.001054  -0.000073  -0.000063
    13  O   -0.000052   0.002643  -0.000029   0.003177   0.012764   0.000951
    14  O    0.663123  -0.080367   0.003245  -0.000036   0.016751   0.000517
    15  N   -0.018447   0.179860  -0.030172  -0.050153  -0.003721   0.004027
    16  H    0.000222  -0.028393   0.004459   0.005860   0.002658   0.000191
    17  N    0.348947  -0.076675   0.009493   0.004843   0.001384   0.000176
    18  H   -0.018685   0.003079   0.001752  -0.000170  -0.000118   0.000037
    19  C   -0.016860  -0.039793  -0.007559   0.006786  -0.000186  -0.000074
    20  C   -0.001760   0.011666   0.000525  -0.000112  -0.000152   0.000011
    21  H    0.000730  -0.000352  -0.000200  -0.000015  -0.000005  -0.000002
    22  H    0.000062  -0.000369  -0.000045  -0.000007   0.000004   0.000000
    23  H    0.000987  -0.002217  -0.000010  -0.000051   0.000061   0.000001
    24  C   -0.064704   0.008809  -0.000395  -0.000615  -0.000108  -0.000043
    25  H   -0.002620  -0.001227  -0.000328   0.000349  -0.000026   0.000008
    26  H    0.008353   0.000320  -0.000112   0.000001  -0.000005   0.000002
    27  H   -0.013011   0.001848   0.000034  -0.000222  -0.000018  -0.000006
    28  O   -0.017105   0.026448   0.012845   0.002732  -0.000057   0.000023
               7          8          9         10         11         12
     1  C    0.005338   0.000410   0.000263  -0.000483  -0.000001   0.000000
     2  C   -0.036544   0.002859  -0.006159  -0.000069  -0.000050  -0.000014
     3  H   -0.010254  -0.000796  -0.001913   0.000155  -0.000046   0.000005
     4  C    0.203627  -0.034895  -0.030950  -0.038763   0.002356  -0.001054
     5  H   -0.031618   0.003578  -0.003336  -0.000656   0.000553  -0.000073
     6  H   -0.034371  -0.001376   0.003562  -0.001895   0.000026  -0.000063
     7  C    5.307016   0.377055   0.399599   0.242643  -0.069781   0.013343
     8  H    0.377055   0.524428  -0.016908  -0.013581   0.009097  -0.001029
     9  H    0.399599  -0.016908   0.491180  -0.015763   0.001029  -0.000155
    10  C    0.242643  -0.013581  -0.015763   4.411471   0.389788  -0.021885
    11  O   -0.069781   0.009097   0.001029   0.389788   7.720720   0.326287
    12  H    0.013343  -0.001029  -0.000155  -0.021885   0.326287   0.480609
    13  O   -0.097521   0.003748  -0.001148   0.674473  -0.081584   0.007551
    14  O    0.001233  -0.000059  -0.000136  -0.000028   0.000000   0.000000
    15  N    0.001844  -0.001471   0.015235   0.000510   0.000000   0.000001
    16  H   -0.003362   0.000206  -0.000232   0.000014  -0.000002   0.000000
    17  N   -0.000047  -0.000085  -0.000045   0.000003   0.000000   0.000000
    18  H   -0.000060  -0.000006   0.000007   0.000001   0.000000   0.000000
    19  C    0.000576  -0.000171   0.000339   0.000012   0.000000   0.000000
    20  C    0.000022   0.000003   0.000184   0.000001   0.000000   0.000000
    21  H    0.000003   0.000001   0.000002   0.000000   0.000000   0.000000
    22  H   -0.000001   0.000001  -0.000011   0.000000   0.000000   0.000000
    23  H   -0.000002   0.000000  -0.000054   0.000000   0.000000   0.000000
    24  C    0.000010   0.000003   0.000003   0.000000   0.000000   0.000000
    25  H    0.000008   0.000003   0.000000  -0.000001   0.000000   0.000000
    26  H    0.000000   0.000000   0.000000   0.000000   0.000000   0.000000
    27  H   -0.000002  -0.000001   0.000000   0.000000   0.000000   0.000000
    28  O   -0.000177  -0.000034  -0.000051   0.000000   0.000000   0.000000
              13         14         15         16         17         18
     1  C   -0.000052   0.663123  -0.018447   0.000222   0.348947  -0.018685
     2  C    0.002643  -0.080367   0.179860  -0.028393  -0.076675   0.003079
     3  H   -0.000029   0.003245  -0.030172   0.004459   0.009493   0.001752
     4  C    0.003177  -0.000036  -0.050153   0.005860   0.004843  -0.000170
     5  H    0.012764   0.016751  -0.003721   0.002658   0.001384  -0.000118
     6  H    0.000951   0.000517   0.004027   0.000191   0.000176   0.000037
     7  C   -0.097521   0.001233   0.001844  -0.003362  -0.000047  -0.000060
     8  H    0.003748  -0.000059  -0.001471   0.000206  -0.000085  -0.000006
     9  H   -0.001148  -0.000136   0.015235  -0.000232  -0.000045   0.000007
    10  C    0.674473  -0.000028   0.000510   0.000014   0.000003   0.000001
    11  O   -0.081584   0.000000   0.000000  -0.000002   0.000000   0.000000
    12  H    0.007551   0.000000   0.000001   0.000000   0.000000   0.000000
    13  O    7.830652  -0.000002  -0.000049  -0.000051   0.000000   0.000000
    14  O   -0.000002   7.864165   0.000499   0.000906  -0.101691   0.003854
    15  N   -0.000049   0.000499   6.653819   0.367259   0.002788   0.000180
    16  H   -0.000051   0.000906   0.367259   0.511365   0.000114  -0.000104
    17  N    0.000000  -0.101691   0.002788   0.000114   6.542347   0.362730
    18  H    0.000000   0.003854   0.000180  -0.000104   0.362730   0.473141
    19  C    0.000002   0.000414   0.306287  -0.007620   0.008529  -0.007025
    20  C    0.000000  -0.000106  -0.075280  -0.003270  -0.000718   0.001071
    21  H    0.000000  -0.000034   0.004153  -0.000730   0.000952  -0.000053
    22  H    0.000000  -0.000002   0.001966   0.000386   0.000066  -0.000036
    23  H    0.000000   0.000135   0.011187   0.001519  -0.000094  -0.000119
    24  C    0.000000  -0.002515  -0.000245   0.000013   0.288949  -0.017243
    25  H    0.000000   0.004791  -0.000075  -0.000002  -0.053523  -0.002676
    26  H    0.000000   0.002122   0.000008  -0.000002  -0.023460  -0.004286
    27  H    0.000000   0.010643  -0.000006   0.000001  -0.045109   0.005494
    28  O    0.000000   0.000174  -0.105647   0.003834  -0.025333   0.025249
              19         20         21         22         23         24
     1  C   -0.016860  -0.001760   0.000730   0.000062   0.000987  -0.064704
     2  C   -0.039793   0.011666  -0.000352  -0.000369  -0.002217   0.008809
     3  H   -0.007559   0.000525  -0.000200  -0.000045  -0.000010  -0.000395
     4  C    0.006786  -0.000112  -0.000015  -0.000007  -0.000051  -0.000615
     5  H   -0.000186  -0.000152  -0.000005   0.000004   0.000061  -0.000108
     6  H   -0.000074   0.000011  -0.000002   0.000000   0.000001  -0.000043
     7  C    0.000576   0.000022   0.000003  -0.000001  -0.000002   0.000010
     8  H   -0.000171   0.000003   0.000001   0.000001   0.000000   0.000003
     9  H    0.000339   0.000184   0.000002  -0.000011  -0.000054   0.000003
    10  C    0.000012   0.000001   0.000000   0.000000   0.000000   0.000000
    11  O    0.000000   0.000000   0.000000   0.000000   0.000000   0.000000
    12  H    0.000000   0.000000   0.000000   0.000000   0.000000   0.000000
    13  O    0.000002   0.000000   0.000000   0.000000   0.000000   0.000000
    14  O    0.000414  -0.000106  -0.000034  -0.000002   0.000135  -0.002515
    15  N    0.306287  -0.075280   0.004153   0.001966   0.011187  -0.000245
    16  H   -0.007620  -0.003270  -0.000730   0.000386   0.001519   0.000013
    17  N    0.008529  -0.000718   0.000952   0.000066  -0.000094   0.288949
    18  H   -0.007025   0.001071  -0.000053  -0.000036  -0.000119  -0.017243
    19  C    4.588513   0.296282  -0.027780  -0.021848  -0.046501   0.000243
    20  C    0.296282   4.915712   0.393365   0.385057   0.393347  -0.000032
    21  H   -0.027780   0.393365   0.550172  -0.017796  -0.024870  -0.000009
    22  H   -0.021848   0.385057  -0.017796   0.565623  -0.033054   0.000001
    23  H   -0.046501   0.393347  -0.024870  -0.033054   0.598532  -0.000004
    24  C    0.000243  -0.000032  -0.000009   0.000001  -0.000004   4.759695
    25  H    0.000083   0.000000   0.000009   0.000000  -0.000001   0.401923
    26  H    0.000049  -0.000009   0.000008   0.000000   0.000000   0.391825
    27  H   -0.000451   0.000031  -0.000051  -0.000003   0.000022   0.403259
    28  O    0.637351  -0.059584   0.004533   0.000259   0.002931   0.000580
              25         26         27         28
     1  C   -0.002620   0.008353  -0.013011  -0.017105
     2  C   -0.001227   0.000320   0.001848   0.026448
     3  H   -0.000328  -0.000112   0.000034   0.012845
     4  C    0.000349   0.000001  -0.000222   0.002732
     5  H   -0.000026  -0.000005  -0.000018  -0.000057
     6  H    0.000008   0.000002  -0.000006   0.000023
     7  C    0.000008   0.000000  -0.000002  -0.000177
     8  H    0.000003   0.000000  -0.000001  -0.000034
     9  H    0.000000   0.000000   0.000000  -0.000051
    10  C   -0.000001   0.000000   0.000000   0.000000
    11  O    0.000000   0.000000   0.000000   0.000000
    12  H    0.000000   0.000000   0.000000   0.000000
    13  O    0.000000   0.000000   0.000000   0.000000
    14  O    0.004791   0.002122   0.010643   0.000174
    15  N   -0.000075   0.000008  -0.000006  -0.105647
    16  H   -0.000002  -0.000002   0.000001   0.003834
    17  N   -0.053523  -0.023460  -0.045109  -0.025333
    18  H   -0.002676  -0.004286   0.005494   0.025249
    19  C    0.000083   0.000049  -0.000451   0.637351
    20  C    0.000000  -0.000009   0.000031  -0.059584
    21  H    0.000009   0.000008  -0.000051   0.004533
    22  H    0.000000   0.000000  -0.000003   0.000259
    23  H   -0.000001   0.000000   0.000022   0.002931
    24  C    0.401923   0.391825   0.403259   0.000580
    25  H    0.631844  -0.026896  -0.061571  -0.000083
    26  H   -0.026896   0.582040  -0.024068  -0.000009
    27  H   -0.061571  -0.024068   0.597728   0.000091
    28  O   -0.000083  -0.000009   0.000091   7.895288
 Mulliken charges:
               1
     1  C    0.261709
     2  C   -0.098427
     3  H    0.219038
     4  C   -0.298292
     5  H    0.208953
     6  H    0.156302
     7  C   -0.268576
     8  H    0.149021
     9  H    0.165456
    10  C    0.374053
    11  O   -0.298392
    12  H    0.196475
    13  O   -0.355526
    14  O   -0.387597
    15  N   -0.264356
    16  H    0.144762
    17  N   -0.244540
    18  H    0.173983
    19  C    0.330404
    20  C   -0.256254
    21  H    0.117968
    22  H    0.119747
    23  H    0.098255
    24  C   -0.169401
    25  H    0.110009
    26  H    0.094118
    27  H    0.125366
    28  O   -0.404257
 Sum of Mulliken charges =   0.00000
 Mulliken charges with hydrogens summed into heavy atoms:
               1
     1  C    0.261709
     2  C    0.120611
     4  C    0.066963
     7  C    0.045900
    10  C    0.374053
    11  O   -0.101917
    13  O   -0.355526
    14  O   -0.387597
    15  N   -0.119594
    17  N   -0.070557
    19  C    0.330404
    20  C    0.079715
    24  C    0.160093
    28  O   -0.404257
 Electronic spatial extent (au):  <R**2>=           3912.8070
 Charge=              0.0000 electrons
 Dipole moment (field-independent basis, Debye):
    X=              0.7962    Y=              2.1808    Z=             -1.1524  Tot=              2.5919
 Quadrupole moment (field-independent basis, Debye-Ang):
   XX=            -79.2222   YY=            -80.5957   ZZ=            -86.2964
   XY=              1.1345   XZ=              9.2370   YZ=             13.9211
 Traceless Quadrupole moment (field-independent basis, Debye-Ang):
   XX=              2.8159   YY=              1.4424   ZZ=             -4.2582
   XY=              1.1345   XZ=              9.2370   YZ=             13.9211
 Octapole moment (field-independent basis, Debye-Ang**2):
  XXX=            -25.8435  YYY=             15.5298  ZZZ=             -1.1556  XYY=             12.8449
  XXY=            -25.0389  XXZ=            -20.2626  XZZ=              1.2253  YZZ=              4.5194
  YYZ=              2.2515  XYZ=              3.3000
 Hexadecapole moment (field-independent basis, Debye-Ang**3):
 XXXX=          -2995.7817 YYYY=          -1077.6968 ZZZZ=           -337.9912 XXXY=             87.0959
 XXXZ=            156.3458 YYYX=             21.4105 YYYZ=             30.2107 ZZZX=              2.4041
 ZZZY=              9.4743 XXYY=           -717.3047 XXZZ=           -666.0599 YYZZ=           -258.7052
 XXYZ=             93.6739 YYXZ=             15.5947 ZZXY=             -4.7024
 N-N= 9.196891317317D+02 E-N=-3.530715399746D+03  KE= 7.175157939394D+02
 No NMR shielding tensors so no spin-rotation constants.
 Leave Link  601 at Thu Oct  3 09:49:02 2013, MaxMem= 17179869184 cpu:        27.6
 (Enter /system/software/linux-x86_64/gaussian/g09/D.01__pgi_12.10__atlas/l701.exe)
 Compute integral first derivatives.
 ... and contract with generalized density number  0.
 Leave Link  701 at Thu Oct  3 09:49:10 2013, MaxMem= 17179869184 cpu:        35.2
 (Enter /system/software/linux-x86_64/gaussian/g09/D.01__pgi_12.10__atlas/l702.exe)
 L702 exits ... SP integral derivatives will be done elsewhere.
 Leave Link  702 at Thu Oct  3 09:49:11 2013, MaxMem= 17179869184 cpu:         3.8
 (Enter /system/software/linux-x86_64/gaussian/g09/D.01__pgi_12.10__atlas/l703.exe)
 Compute integral first derivatives, UseDBF=F ICtDFT=           0.
 Integral derivatives from FoFJK, PRISM(SPDF).
 Calling FoFJK, ICntrl=      2127 FMM=F ISym2X=0 I1Cent= 0 IOpClX= 0 NMat=1 NMatS=1 NMatT=0.
 FoFJK:  IHMeth= 1 ICntrl=    2127 DoSepK=F KAlg= 0 I1Cent=   0 FoldK=F
 IRaf=         0 NMat=   1 IRICut=       1 DoRegI=T DoRafI=F ISym2E= 0.
 FoFCou: FMM=F IPFlag=           0 FMFlag=      100000 FMFlg1=         800
         NFxFlg=           0 DoJE=F BraDBF=F KetDBF=F FulRan=T
         wScrn=  0.000000 ICntrl=    2127 IOpCl=  0 I1Cent=           0 NGrid=           0
         NMat0=    1 NMatS0=      1 NMatT0=    0 NMatD0=    1 NMtDS0=    0 NMtDT0=    0
 Symmetry not used in FoFCou.
 Leave Link  703 at Thu Oct  3 09:50:14 2013, MaxMem= 17179869184 cpu:      1478.1
 (Enter /system/software/linux-x86_64/gaussian/g09/D.01__pgi_12.10__atlas/l716.exe)
 Dipole        = 3.13262650D-01 8.58009726D-01-4.53380819D-01
 ***** Axes restored to original set *****
 -------------------------------------------------------------------
 Center     Atomic                   Forces (Hartrees/Bohr)
 Number     Number              X              Y              Z
 -------------------------------------------------------------------
      1        6           0.025532057   -0.008300814   -0.057835693
      2        6          -0.009261132    0.028194677   -0.024272745
      3        1           0.000536552   -0.008470448    0.012924851
      4        6          -0.017274177   -0.018403198    0.020375214
      5        1          -0.001636349    0.005585300   -0.011558535
      6        1           0.012326753    0.004454310   -0.003401848
      7        6           0.018215498    0.030658644   -0.006228958
      8        1           0.001976882   -0.005831156    0.014353920
      9        1          -0.013812012   -0.002496865    0.003842697
     10        6           0.001884180    0.065264843   -0.049412840
     11        8           0.000847461   -0.049425076   -0.037322349
     12        1          -0.004530373    0.005200914   -0.010032565
     13        8           0.001278474   -0.045563505    0.080329727
     14        8          -0.000940138   -0.039317228    0.057267641
     15        7           0.006813268   -0.097175711    0.004506294
     16        1           0.007568843    0.019863159   -0.011454007
     17        7          -0.037036888    0.100003057   -0.016812288
     18        1           0.012568083   -0.019032262    0.000153798
     19        6           0.036342323   -0.009330562    0.032845006
     20        6           0.023860157    0.026646399    0.014578062
     21        1           0.005796867   -0.009082923   -0.001640122
     22        1          -0.010005298   -0.002623819    0.008554810
     23        1          -0.007655888    0.006731511   -0.009816780
     24        6          -0.008602781   -0.018390933    0.029472467
     25        1           0.009917220    0.009608365   -0.002528301
     26        1           0.005492342   -0.011307471   -0.000484618
     27        1          -0.006186203    0.002005556   -0.008901395
     28        8          -0.054015718    0.040535236   -0.027501442
 -------------------------------------------------------------------
 Cartesian Forces:  Max     0.100003057 RMS     0.028202282
 Leave Link  716 at Thu Oct  3 09:50:15 2013, MaxMem= 17179869184 cpu:         1.5
 (Enter /system/software/linux-x86_64/gaussian/g09/D.01__pgi_12.10__atlas/l103.exe)

 GradGradGradGradGradGradGradGradGradGradGradGradGradGradGradGradGradGrad
 Berny optimization.
 FormGI is forming the generalized inverse of G from B-inverse, IUseBI=4.
 Internal  Forces:  Max     0.092124601 RMS     0.017959733
 Search for a local minimum.
 Step number   1 out of a maximum of  141
 All quantities printed in internal units (Hartrees-Bohrs-Radians)
 RMS Force = .17960D-01 SwitMx=.10000D-02 MixMth= 1
 Mixed Optimization -- RFO/linear search
 Second derivative matrix not updated -- first step.
 ITU=  0
     Eigenvalues ---    0.00237   0.00237   0.00237   0.00237   0.00237
     Eigenvalues ---    0.00448   0.00448   0.00501   0.00766   0.00766
     Eigenvalues ---    0.00766   0.00766   0.00950   0.01295   0.01511
     Eigenvalues ---    0.03840   0.04356   0.04828   0.04896   0.05056
     Eigenvalues ---    0.05410   0.06194   0.07243   0.07243   0.07537
     Eigenvalues ---    0.07537   0.07655   0.08669   0.11701   0.12376
     Eigenvalues ---    0.13486   0.15113   0.16000   0.16000   0.16000
     Eigenvalues ---    0.16000   0.16000   0.16000   0.16000   0.16855
     Eigenvalues ---    0.17980   0.21948   0.21955   0.21983   0.22161
     Eigenvalues ---    0.25000   0.25000   0.25000   0.25000   0.25000
     Eigenvalues ---    0.25000   0.28519   0.28519   0.28519   0.28519
     Eigenvalues ---    0.28519   0.35740   0.35740   0.35740   0.35740
     Eigenvalues ---    0.37230   0.37230   0.37230   0.37230   0.37230
     Eigenvalues ---    0.37230   0.37230   0.37230   0.37230   0.37230
     Eigenvalues ---    0.37230   0.40989   0.47688   0.47688   0.55473
     Eigenvalues ---    0.80209   0.80209   0.80209
 RFO step:  Lambda=-8.78500306D-02 EMin= 2.36824041D-03
 Linear search not attempted -- first point.
 Maximum step size (   0.300) exceeded in Quadratic search.
    -- Step size scaled by   0.679
 Iteration  1 RMS(Cart)=  0.13041729 RMS(Int)=  0.00352163
 Iteration  2 RMS(Cart)=  0.00839377 RMS(Int)=  0.00060973
 Iteration  3 RMS(Cart)=  0.00002270 RMS(Int)=  0.00060960
 Iteration  4 RMS(Cart)=  0.00000003 RMS(Int)=  0.00060960
 ITry= 1 IFail=0 DXMaxC= 4.52D-01 DCOld= 1.00D+10 DXMaxT= 3.00D-01 DXLimC= 3.00D+00 Rises=F
 Variable       Old X    -DE/DX   Delta X   Delta X   Delta X     New X
                                 (Linear)    (Quad)   (Total)
    R1        2.91018  -0.00466   0.00000  -0.00849  -0.00849   2.90169
[...]
 Alpha virt. eigenvalues --    2.94096   2.94251   2.95723   2.97618   2.97835
 Alpha virt. eigenvalues --    2.99728   3.00175   3.00799   3.01754   3.03033
 Alpha virt. eigenvalues --    3.03727   3.03807   3.04999   3.05884   3.07374
 Alpha virt. eigenvalues --    3.08465   3.09244   3.09766   3.11529   3.11874
 Alpha virt. eigenvalues --    3.12810   3.13590   3.14806   3.15303   3.16852
 Alpha virt. eigenvalues --    3.17439   3.18955   3.19831   3.20811   3.21763
 Alpha virt. eigenvalues --    3.22564   3.22801   3.24202   3.26335   3.26385
 Alpha virt. eigenvalues --    3.27383   3.27581   3.28190   3.29112   3.29800
 Alpha virt. eigenvalues --    3.30761   3.31547   3.32657   3.33699   3.34755
 Alpha virt. eigenvalues --    3.36185   3.36948   3.36965   3.37928   3.39371
 Alpha virt. eigenvalues --    3.41128   3.41715   3.42080   3.42471   3.43362
 Alpha virt. eigenvalues --    3.45002   3.45405   3.47258   3.48164   3.49200
 Alpha virt. eigenvalues --    3.51402   3.51892   3.53622   3.54462   3.57033
 Alpha virt. eigenvalues --    3.57549   3.57785   3.58539   3.59112   3.59692
 Alpha virt. eigenvalues --    3.61905   3.63272   3.64882   3.67085   3.67848
 Alpha virt. eigenvalues --    3.68476   3.70143   3.70439   3.71594   3.71917
 Alpha virt. eigenvalues --    3.73086   3.73395   3.75510   3.76560   3.76719
 Alpha virt. eigenvalues --    3.77262   3.78077   3.78479   3.79694   3.79851
 Alpha virt. eigenvalues --    3.82080   3.82845   3.83753   3.85051   3.86044
 Alpha virt. eigenvalues --    3.86721   3.88262   3.89223   3.90700   3.91902
 Alpha virt. eigenvalues --    3.93557   3.94605   3.95664   3.98404   3.98955
 Alpha virt. eigenvalues --    4.00302   4.00949   4.01621   4.03287   4.03883
 Alpha virt. eigenvalues --    4.05006   4.06047   4.06961   4.07204   4.07804
 Alpha virt. eigenvalues --    4.08302   4.09631   4.11542   4.11956   4.13768
 Alpha virt. eigenvalues --    4.13948   4.16510   4.18784   4.19415   4.20017
 Alpha virt. eigenvalues --    4.21369   4.22095   4.22247   4.23096   4.23770
 Alpha virt. eigenvalues --    4.25500   4.26896   4.28094   4.28493   4.28945
 Alpha virt. eigenvalues --    4.29725   4.30677   4.31418   4.32205   4.33342
 Alpha virt. eigenvalues --    4.35124   4.39250   4.40789   4.44156   4.44708
 Alpha virt. eigenvalues --    4.47421   4.48463   4.49788   4.51634   4.53766
 Alpha virt. eigenvalues --    4.54686   4.57747   4.59225   4.60163   4.63127
 Alpha virt. eigenvalues --    4.63808   4.65639   4.67525   4.69080   4.70899
 Alpha virt. eigenvalues --    4.72953   4.74547   4.75608   4.76192   4.77144
 Alpha virt. eigenvalues --    4.78954   4.79801   4.81244   4.84203   4.84748
 Alpha virt. eigenvalues --    4.86186   4.87825   4.89125   4.90437   4.91339
 Alpha virt. eigenvalues --    4.91667   4.92479   4.93409   4.95573   4.96380
 Alpha virt. eigenvalues --    4.97418   4.98604   4.99230   5.01000   5.01743
 Alpha virt. eigenvalues --    5.02541   5.04180   5.04691   5.06505   5.09216
 Alpha virt. eigenvalues --    5.11740   5.12475   5.13950   5.16054   5.16150
 Alpha virt. eigenvalues --    5.17774   5.18219   5.19241   5.21181   5.22168
 Alpha virt. eigenvalues --    5.22312   5.23068   5.25136   5.26342   5.28076
 Alpha virt. eigenvalues --    5.28308   5.29779   5.31390   5.34088   5.34633
 Alpha virt. eigenvalues --    5.34670   5.36273   5.38185   5.41615   5.42930
 Alpha virt. eigenvalues --    5.44519   5.48119   5.54212   5.54848   5.56757
 Alpha virt. eigenvalues --    5.57826   5.59942   5.61511   5.63494   5.69802
 Alpha virt. eigenvalues --    5.70431   5.71829   5.73944   5.74105   5.76816
 Alpha virt. eigenvalues --    5.77570   5.77876   5.79096   5.82307   5.86337
 Alpha virt. eigenvalues --    5.92503   5.92885   5.95280   5.97819   5.98518
 Alpha virt. eigenvalues --    6.00933   6.04266   6.05343   6.09793   6.21681
 Alpha virt. eigenvalues --    6.22747   6.26149   6.30777   6.34209   6.39531
 Alpha virt. eigenvalues --    6.40205   6.47270   6.50087   6.50189   6.51679
 Alpha virt. eigenvalues --    6.53024   6.54576   6.60256   6.62233   6.65844
 Alpha virt. eigenvalues --    6.70543   6.72120   6.78496   6.78655   6.88211
 Alpha virt. eigenvalues --    6.90293   6.90548   6.92043   6.92575   6.93811
 Alpha virt. eigenvalues --    7.04464   7.10825   7.11095   7.14551   7.19300
 Alpha virt. eigenvalues --    7.23235   7.29833   7.42963   9.17400   9.59847
 Alpha virt. eigenvalues --    9.86625  11.97956  12.22747  12.44079  12.69359
 Alpha virt. eigenvalues --   12.78508  13.20306  13.28186  13.40408  13.50324
 Alpha virt. eigenvalues --   13.71604  13.86336
          Condensed to atoms (all electrons):
               1          2          3          4          5          6
     1  C    4.510880   0.161664  -0.017389  -0.060056  -0.003053   0.001974
     2  C    0.161664   5.658523   0.377568   0.170910  -0.029448  -0.036417
     3  H   -0.017389   0.377568   0.460932   0.009088   0.005363  -0.002814
     4  C   -0.060056   0.170910   0.009088   5.310980   0.408777   0.414463
     5  H   -0.003053  -0.029448   0.005363   0.408777   0.477394  -0.013776
     6  H    0.001974  -0.036417  -0.002814   0.414463  -0.013776   0.482601
     7  C    0.006066  -0.045080  -0.011000   0.152776  -0.040005  -0.029951
     8  H    0.000103   0.002966   0.000341  -0.029742   0.004276  -0.002341
     9  H   -0.000077  -0.004757  -0.002395  -0.033635  -0.003777   0.004690
    10  C   -0.000650   0.001898  -0.000393  -0.046165   0.000355  -0.000264
    11  O    0.000000   0.000113  -0.000048   0.006441   0.000221   0.000165
    12  H    0.000000  -0.000013   0.000003  -0.001581  -0.000068  -0.000079
    13  O   -0.000092   0.002449   0.000015   0.014673   0.006560   0.004693
    14  O    0.744502  -0.115662   0.001691   0.022894   0.007570   0.004613
    15  N    0.001124   0.154825  -0.047631  -0.061087  -0.009908   0.003773
    16  H    0.001366  -0.028611   0.006258   0.010268   0.006077  -0.000111
    17  N    0.468446  -0.104360   0.003629   0.009011   0.000399   0.000064
    18  H   -0.034156   0.010935  -0.000865   0.000154  -0.000090  -0.000042
    19  C   -0.002262  -0.053669  -0.018453   0.006177  -0.000780   0.000074
    20  C   -0.001278   0.009547   0.000423  -0.000340  -0.000127   0.000032
    21  H    0.000060  -0.000452  -0.000246  -0.000040  -0.000008   0.000000
    22  H    0.000054  -0.000276   0.000147   0.000057   0.000012  -0.000002
    23  H    0.000202   0.000151  -0.000322  -0.000313  -0.000020   0.000000
    24  C   -0.061093   0.009909  -0.000633  -0.000701   0.000000   0.000010
    25  H   -0.015604   0.006151  -0.000456  -0.000457  -0.000066  -0.000022
    26  H    0.004022  -0.000516  -0.000108   0.000041  -0.000001   0.000011
    27  H    0.001013  -0.000234   0.000167   0.000015   0.000006  -0.000006
    28  O   -0.016736   0.025823   0.017277   0.002821  -0.000019   0.000037
               7          8          9         10         11         12
     1  C    0.006066   0.000103  -0.000077  -0.000650   0.000000   0.000000
     2  C   -0.045080   0.002966  -0.004757   0.001898   0.000113  -0.000013
     3  H   -0.011000   0.000341  -0.002395  -0.000393  -0.000048   0.000003
     4  C    0.152776  -0.029742  -0.033635  -0.046165   0.006441  -0.001581
     5  H   -0.040005   0.004276  -0.003777   0.000355   0.000221  -0.000068
     6  H   -0.029951  -0.002341   0.004690  -0.000264   0.000165  -0.000079
     7  C    5.458700   0.378563   0.383446   0.232948  -0.096515   0.019495
     8  H    0.378563   0.516855  -0.023486  -0.007665   0.003411  -0.000405
     9  H    0.383446  -0.023486   0.509515  -0.012962   0.003494  -0.000400
    10  C    0.232948  -0.007665  -0.012962   4.315292   0.439306  -0.032835
    11  O   -0.096515   0.003411   0.003494   0.439306   7.679676   0.324314
    12  H    0.019495  -0.000405  -0.000400  -0.032835   0.324314   0.487573
    13  O   -0.107654   0.000116  -0.000432   0.742395  -0.099337   0.012632
    14  O    0.001462  -0.000011  -0.000101  -0.000081   0.000000   0.000000
    15  N    0.010992  -0.000093   0.016792   0.000926   0.000006   0.000003
    16  H   -0.003880   0.000287  -0.000311  -0.000172  -0.000007   0.000002
    17  N    0.000170  -0.000057  -0.000029  -0.000003   0.000000   0.000000
    18  H   -0.000080  -0.000008   0.000024   0.000003   0.000000   0.000000
    19  C    0.000383   0.000164  -0.000714   0.000096  -0.000002   0.000000
    20  C    0.000051   0.000003   0.000508   0.000002   0.000000   0.000000
    21  H    0.000016   0.000002   0.000045   0.000001   0.000000   0.000000
    22  H    0.000008  -0.000005  -0.000175  -0.000002   0.000000   0.000000
    23  H    0.000054   0.000004   0.000086   0.000002   0.000000   0.000000
    24  C    0.000018   0.000002   0.000003   0.000000   0.000000   0.000000
    25  H    0.000004   0.000001   0.000001   0.000000   0.000000   0.000000
    26  H   -0.000001   0.000000   0.000000   0.000000   0.000000   0.000000
    27  H   -0.000001   0.000000   0.000000   0.000000   0.000000   0.000000
    28  O   -0.000561  -0.000058  -0.000399  -0.000004   0.000000   0.000000
              13         14         15         16         17         18
     1  C   -0.000092   0.744502   0.001124   0.001366   0.468446  -0.034156
     2  C    0.002449  -0.115662   0.154825  -0.028611  -0.104360   0.010935
     3  H    0.000015   0.001691  -0.047631   0.006258   0.003629  -0.000865
     4  C    0.014673   0.022894  -0.061087   0.010268   0.009011   0.000154
     5  H    0.006560   0.007570  -0.009908   0.006077   0.000399  -0.000090
     6  H    0.004693   0.004613   0.003773  -0.000111   0.000064  -0.000042
     7  C   -0.107654   0.001462   0.010992  -0.003880   0.000170  -0.000080
     8  H    0.000116  -0.000011  -0.000093   0.000287  -0.000057  -0.000008
     9  H   -0.000432  -0.000101   0.016792  -0.000311  -0.000029   0.000024
    10  C    0.742395  -0.000081   0.000926  -0.000172  -0.000003   0.000003
    11  O   -0.099337   0.000000   0.000006  -0.000007   0.000000   0.000000
    12  H    0.012632   0.000000   0.000003   0.000002   0.000000   0.000000
    13  O    7.759161   0.000005  -0.000022  -0.000057   0.000000   0.000000
    14  O    0.000005   7.806198   0.000088   0.000795  -0.113305   0.003723
    15  N   -0.000022   0.000088   6.592487   0.356446  -0.003487  -0.005746
    16  H   -0.000057   0.000795   0.356446   0.521704  -0.000379  -0.000253
    17  N    0.000000  -0.113305  -0.003487  -0.000379   6.424517   0.378203
    18  H    0.000000   0.003723  -0.005746  -0.000253   0.378203   0.463858
    19  C    0.000001  -0.000897   0.357377  -0.017105   0.010575  -0.005153
    20  C    0.000000  -0.000011  -0.053946  -0.002419  -0.000057   0.001544
    21  H    0.000000  -0.000002   0.000302  -0.000592   0.000168  -0.000037
    22  H    0.000000   0.000000  -0.001032   0.000471   0.000005  -0.000038
    23  H    0.000000  -0.000006   0.011708  -0.001244   0.000060  -0.000175
    24  C    0.000000  -0.016057  -0.000532   0.000036   0.273435  -0.028333
    25  H    0.000000   0.029896  -0.000242  -0.000021  -0.040054   0.005125
    26  H    0.000000   0.000034  -0.000028   0.000002  -0.033716  -0.005409
    27  H    0.000000  -0.000036   0.000260  -0.000004  -0.038390  -0.002002
    28  O    0.000000   0.000040  -0.136353   0.004314  -0.016121   0.033745
              19         20         21         22         23         24
     1  C   -0.002262  -0.001278   0.000060   0.000054   0.000202  -0.061093
     2  C   -0.053669   0.009547  -0.000452  -0.000276   0.000151   0.009909
     3  H   -0.018453   0.000423  -0.000246   0.000147  -0.000322  -0.000633
     4  C    0.006177  -0.000340  -0.000040   0.000057  -0.000313  -0.000701
     5  H   -0.000780  -0.000127  -0.000008   0.000012  -0.000020   0.000000
     6  H    0.000074   0.000032   0.000000  -0.000002   0.000000   0.000010
     7  C    0.000383   0.000051   0.000016   0.000008   0.000054   0.000018
     8  H    0.000164   0.000003   0.000002  -0.000005   0.000004   0.000002
     9  H   -0.000714   0.000508   0.000045  -0.000175   0.000086   0.000003
    10  C    0.000096   0.000002   0.000001  -0.000002   0.000002   0.000000
    11  O   -0.000002   0.000000   0.000000   0.000000   0.000000   0.000000
    12  H    0.000000   0.000000   0.000000   0.000000   0.000000   0.000000
    13  O    0.000001   0.000000   0.000000   0.000000   0.000000   0.000000
    14  O   -0.000897  -0.000011  -0.000002   0.000000  -0.000006  -0.016057
    15  N    0.357377  -0.053946   0.000302  -0.001032   0.011708  -0.000532
    16  H   -0.017105  -0.002419  -0.000592   0.000471  -0.001244   0.000036
    17  N    0.010575  -0.000057   0.000168   0.000005   0.000060   0.273435
    18  H   -0.005153   0.001544  -0.000037  -0.000038  -0.000175  -0.028333
    19  C    4.562071   0.286259  -0.032581  -0.020769  -0.058378  -0.000117
    20  C    0.286259   4.942077   0.393384   0.383421   0.405310  -0.000042
    21  H   -0.032581   0.393384   0.571104  -0.025499  -0.024325   0.000027
    22  H   -0.020769   0.383421  -0.025499   0.569233  -0.026100  -0.000003
    23  H   -0.058378   0.405310  -0.024325  -0.026100   0.589333  -0.000001
    24  C   -0.000117  -0.000042   0.000027  -0.000003  -0.000001   4.804028
    25  H    0.000008  -0.000004   0.000006   0.000000   0.000001   0.397077
    26  H    0.000176   0.000003   0.000001   0.000000   0.000000   0.401555
    27  H   -0.000360  -0.000015  -0.000031   0.000001  -0.000003   0.400320
    28  O    0.671308  -0.058686   0.001666   0.001568   0.003722   0.000321
              25         26         27         28
     1  C   -0.015604   0.004022   0.001013  -0.016736
     2  C    0.006151  -0.000516  -0.000234   0.025823
     3  H   -0.000456  -0.000108   0.000167   0.017277
     4  C   -0.000457   0.000041   0.000015   0.002821
     5  H   -0.000066  -0.000001   0.000006  -0.000019
     6  H   -0.000022   0.000011  -0.000006   0.000037
     7  C    0.000004  -0.000001  -0.000001  -0.000561
     8  H    0.000001   0.000000   0.000000  -0.000058
     9  H    0.000001   0.000000   0.000000  -0.000399
    10  C    0.000000   0.000000   0.000000  -0.000004
    11  O    0.000000   0.000000   0.000000   0.000000
    12  H    0.000000   0.000000   0.000000   0.000000
    13  O    0.000000   0.000000   0.000000   0.000000
    14  O    0.029896   0.000034  -0.000036   0.000040
    15  N   -0.000242  -0.000028   0.000260  -0.136353
    16  H   -0.000021   0.000002  -0.000004   0.004314
    17  N   -0.040054  -0.033716  -0.038390  -0.016121
    18  H    0.005125  -0.005409  -0.002002   0.033745
    19  C    0.000008   0.000176  -0.000360   0.671308
    20  C   -0.000004   0.000003  -0.000015  -0.058686
    21  H    0.000006   0.000001  -0.000031   0.001666
    22  H    0.000000   0.000000   0.000001   0.001568
    23  H    0.000001   0.000000  -0.000003   0.003722
    24  C    0.397077   0.401555   0.400320   0.000321
    25  H    0.547450  -0.024792  -0.030894  -0.000034
    26  H   -0.024792   0.606412  -0.043415  -0.000032
    27  H   -0.030894  -0.043415   0.622144   0.000099
    28  O   -0.000034  -0.000032   0.000099   7.875962
 Mulliken charges:
               1
     1  C    0.310969
     2  C   -0.173937
     3  H    0.219849
     4  C   -0.305431
     5  H    0.184135
     6  H    0.168626
     7  C   -0.310423
     8  H    0.156776
     9  H    0.165046
    10  C    0.367971
    11  O   -0.261238
    12  H    0.191358
    13  O   -0.335107
    14  O   -0.377341
    15  N   -0.187000
    16  H    0.147142
    17  N   -0.218724
    18  H    0.185073
    19  C    0.316569
    20  C   -0.305639
    21  H    0.117032
    22  H    0.118922
    23  H    0.100251
    24  C   -0.179231
    25  H    0.126927
    26  H    0.095759
    27  H    0.091365
    28  O   -0.409700
 Sum of Mulliken charges =   0.00000
 Mulliken charges with hydrogens summed into heavy atoms:
               1
     1  C    0.310969
     2  C    0.045911
     4  C    0.047331
     7  C    0.011399
    10  C    0.367971
    11  O   -0.069880
    13  O   -0.335107
    14  O   -0.377341
    15  N   -0.039858
    17  N   -0.033652
    19  C    0.316569
    20  C    0.030567
    24  C    0.134820
    28  O   -0.409700
 Electronic spatial extent (au):  <R**2>=           3833.7950
 Charge=              0.0000 electrons
 Dipole moment (field-independent basis, Debye):
    X=             -0.0555    Y=              3.6163    Z=              0.2147  Tot=              3.6231
 Quadrupole moment (field-independent basis, Debye-Ang):
   XX=            -74.5219   YY=            -89.0084   ZZ=            -83.5571
   XY=             -5.8259   XZ=              5.2416   YZ=             12.4642
 Traceless Quadrupole moment (field-independent basis, Debye-Ang):
   XX=              7.8406   YY=             -6.6459   ZZ=             -1.1947
   XY=             -5.8259   XZ=              5.2416   YZ=             12.4642
 Octapole moment (field-independent basis, Debye-Ang**2):
  XXX=            -43.6452  YYY=             33.7064  ZZZ=              2.9950  XYY=              8.2889
  XXY=              0.6907  XXZ=             -7.3861  XZZ=             -5.3390  YZZ=              1.4544
  YYZ=              0.5870  XYZ=              5.0010
 Hexadecapole moment (field-independent basis, Debye-Ang**3):
 XXXX=          -2610.2806 YYYY=          -1301.5672 ZZZZ=           -261.7876 XXXY=           -130.3549
 XXXZ=             60.7924 YYYX=             18.3812 YYYZ=             35.5619 ZZZX=             -1.4425
 ZZZY=              4.2174 XXYY=           -792.1567 XXZZ=           -603.4272 YYZZ=           -278.1007
 XXYZ=             69.3788 YYXZ=             18.9224 ZZXY=             -5.9186
 N-N= 9.291359169987D+02 E-N=-3.550235902843D+03  KE= 7.186078367532D+02
 Calculating spin-rotation constants.
 Leave Link  601 at Fri Oct  4 03:13:30 2013, MaxMem= 17179869184 cpu:       147.3
 (Enter /system/software/linux-x86_64/gaussian/g09/D.01__pgi_12.10__atlas/l9999.exe)

 Test job not archived.
 1\1\GINC-CARIBOU\SP\RM06\Gen\C8H14N2O4\KUPROV\04-Oct-2013\0\\#P Geom=A
 llCheck Guess=TCheck SCRF=Check GenChk RM06/ChkBas NMR=ReadFC IOp(3/6=
 22)\\J-coupling calculation 1\\0,1\C,0,5.2651898843,1.447461349,0.5058
 597956\C,0,4.3566305328,1.7855442708,1.6944057277\H,0,4.7518981958,1.2
 839869264,2.584105114\C,0,4.273542661,3.2774898868,1.923175539\H,0,3.7
 776924533,3.7539692175,1.0728769061\H,0,5.2817644853,3.6927381394,1.92
 25146748\C,0,3.5657703139,3.6144586205,3.21606477\H,0,4.0883986927,3.1
 905292515,4.0791001379\H,0,2.5621329307,3.1794958982,3.2555458511\C,0,
 3.4239423599,5.0877695081,3.4428055347\O,0,2.8573988488,5.3402997321,4
 .6363307402\H,0,2.7959228004,6.3016357724,4.7117922215\O,0,3.752854035
 6,5.9542477537,2.6852132791\O,0,5.6106404234,2.2858907091,-0.298323842
 2\N,0,3.0252702844,1.2329440614,1.4815918909\H,0,2.3603079054,1.802093
 6475,0.9831422363\N,0,5.611399748,0.141865871,0.4555215295\H,0,5.20636
 15316,-0.4738779867,1.1497666372\C,0,2.6971769024,-0.0443373402,1.7991
 57122\C,0,1.2740844675,-0.441467202,1.5343075512\H,0,1.2694458994,-1.3
 103041528,0.877994032\H,0,0.820066399,-0.7475257794,2.4758623256\H,0,0
 .6719786222,0.3491769066,1.0892359531\C,0,6.4035707434,-0.4028451013,-
 0.617371425\H,0,6.7125358108,0.419621886,-1.2583551146\H,0,7.293207406
 4,-0.9040247954,-0.2341367246\H,0,5.8342642424,-1.1174167742,-1.214671
 7102\O,0,3.5005250793,-0.8229184762,2.2796768769\\Version=EM64L-G09Rev
 D.01\State=1-A\HF=-723.5568249\RMSD=3.118e-09\Dipole=-1.2030718,-0.567
 4636,0.5123134\Quadrupole=5.5486067,-4.4951524,-1.0534543,-3.2747712,2
 .758092,10.2484501\PG=C01 [X(C8H14N2O4)]\\@


 THE MOLECULE ALSO HAS A BODY.  WHEN THIS BODY IS HIT, THE MOLECULE
 FEELS HURT ALL OVER -- A. KITAIGORODSKI
 Job cpu time:       4 days  0 hours 32 minutes 47.8 seconds.
 File lengths (MBytes):  RWF=   1942 Int=      0 D2E=      0 Chk=     53 Scr=      1
 Normal termination of Gaussian 09 at Fri Oct  4 03:13:32 2013.
