 Entering Gaussian System, Link 0=g09
 Input=glycine.gjf
 Output=glycine.log
 Initial command:
 /home/ztw1e12/g09/l1.exe /home/ztw1e12/Gau-22476.inp -scrdir=/home/ztw1e12/
 Default is to use a total of   8 processors:
                                8 via shared-memory
                                1 via Linda
 Entering Link 1 = /home/ztw1e12/g09/l1.exe PID=     22477.
  
 Copyright (c) 1988,1990,1992,1993,1995,1998,2003,2009, Gaussian, Inc.
                  All Rights Reserved.
  
 This is part of the Gaussian(R) 09 program.  It is based on
 the Gaussian(R) 03 system (copyright 2003, Gaussian, Inc.),
 the Gaussian(R) 98 system (copyright 1998, Gaussian, Inc.),
 the Gaussian(R) 94 system (copyright 1995, Gaussian, Inc.),
 the Gaussian 92(TM) system (copyright 1992, Gaussian, Inc.),
 the Gaussian 90(TM) system (copyright 1990, Gaussian, Inc.),
 the Gaussian 88(TM) system (copyright 1988, Gaussian, Inc.),
 the Gaussian 86(TM) system (copyright 1986, Carnegie Mellon
 University), and the Gaussian 82(TM) system (copyright 1983,
 Carnegie Mellon University). Gaussian is a federally registered
 trademark of Gaussian, Inc.
  
 This software contains proprietary and confidential information,
 including trade secrets, belonging to Gaussian, Inc.
  
 This software is provided under written license and may be
 used, copied, transmitted, or stored only in accord with that
 written license.
  
 The following legend is applicable only to US Government
 contracts under FAR:
  
                    RESTRICTED RIGHTS LEGEND
  
 Use, reproduction and disclosure by the US Government is
 subject to restrictions as set forth in subparagraphs (a)
 and (c) of the Commercial Computer Software - Restricted
 Rights clause in FAR 52.227-19.
  
 Gaussian, Inc.
 340 Quinnipiac St., Bldg. 40, Wallingford CT 06492
  
  
 ---------------------------------------------------------------
 Warning -- This program may not be used in any manner that
 competes with the business of Gaussian, Inc. or will provide
 assistance to any competitor of Gaussian, Inc.  The licensee
 of this program is prohibited from giving any competitor of
 Gaussian, Inc. access to this program.  By using this program,
 the user acknowledges that Gaussian, Inc. is engaged in the
 business of creating and licensing software in the field of
 computational chemistry and represents and warrants to the
 licensee that it is not a competitor of Gaussian, Inc. and that
 it will not use this program in any manner prohibited above.
 ---------------------------------------------------------------
  

 Cite this work as:
 Gaussian 09, Revision A.02,
 M. J. Frisch, G. W. Trucks, H. B. Schlegel, G. E. Scuseria, 
 M. A. Robb, J. R. Cheeseman, G. Scalmani, V. Barone, B. Mennucci, 
 G. A. Petersson, H. Nakatsuji, M. Caricato, X. Li, H. P. Hratchian, 
 A. F. Izmaylov, J. Bloino, G. Zheng, J. L. Sonnenberg, M. Hada, 
 M. Ehara, K. Toyota, R. Fukuda, J. Hasegawa, M. Ishida, T. Nakajima, 
 Y. Honda, O. Kitao, H. Nakai, T. Vreven, J. A. Montgomery, Jr., 
 J. E. Peralta, F. Ogliaro, M. Bearpark, J. J. Heyd, E. Brothers, 
 K. N. Kudin, V. N. Staroverov, R. Kobayashi, J. Normand, 
 K. Raghavachari, A. Rendell, J. C. Burant, S. S. Iyengar, J. Tomasi, 
 M. Cossi, N. Rega, J. M. Millam, M. Klene, J. E. Knox, J. B. Cross, 
 V. Bakken, C. Adamo, J. Jaramillo, R. Gomperts, R. E. Stratmann, 
 O. Yazyev, A. J. Austin, R. Cammi, C. Pomelli, J. W. Ochterski, 
 R. L. Martin, K. Morokuma, V. G. Zakrzewski, G. A. Voth, 
 P. Salvador, J. J. Dannenberg, S. Dapprich, A. D. Daniels, 
 O. Farkas, J. B. Foresman, J. V. Ortiz, J. Cioslowski, 
 and D. J. Fox, Gaussian, Inc., Wallingford CT, 2009.
 
 ******************************************
 Gaussian 09:  EM64L-G09RevA.02 11-Jun-2009
                22-Feb-2013 
 ******************************************
 %Chk=glycine.chk
 %Mem=16GB
 %NProcShared=12
 Will use up to   12 processors via shared memory.
 Default route:  MaxDisk=100GB
 ------------------------------------------------------------
 #p opt=tight m06/cc-pvtz scf=tight integral=(grid=ultrafine)
 ------------------------------------------------------------
 1/7=10,14=-1,18=20,19=15,26=3,38=1/1,3;
 2/9=110,12=2,17=6,18=5,40=1/2;
 3/5=16,6=1,11=2,16=1,25=1,30=1,71=1,74=-54,75=-5/1,2,3;
 4//1;
 5/5=2,32=2,38=5/2;
 6/7=2,8=2,9=2,10=2,28=1/1;
 7//1,2,3,16;
 1/7=10,14=-1,18=20,19=15/3(2);
 2/9=110/2;
 99//99;
 2/9=110/2;
 3/5=16,6=1,11=2,16=1,25=1,30=1,71=1,74=-54,75=-5/1,2,3;
 4/5=5,16=3/1;
 5/5=2,32=2,38=5/2;
 7//1,2,3,16;
 1/7=10,14=-1,18=20,19=15/3(-5);
 2/9=110/2;
 6/7=2,8=2,9=2,10=2,19=2,28=1/1;
 99/9=1/99;
 Leave Link    1 at Fri Feb 22 07:42:26 2013, MaxMem= 2147483648 cpu:       1.3
 (Enter /home/ztw1e12/g09/l101.exe)
 ---------------------
 Geometry optimisation
 ---------------------
 Symbolic Z-matrix:
 Charge =  0 Multiplicity = 1
 C                    -2.80923   0.66669   1.59478 
 H                    -3.67583   1.12807   2.02025 
 H                    -2.49751  -0.14729   2.2154 
 C                    -1.67293   1.70144   1.49617 
 N                    -3.13155   0.16338   0.25177 
 H                    -3.8694   -0.50853   0.3158 
 O                    -1.54943   2.4034    0.45907 
 N                    -0.73256   1.86916   2.61352 
 H                    -0.63144   0.9999    3.09743 
 C                     0.57473   2.29568   2.09392 
 H                     0.46652   3.22578   1.57613 
 H                     1.25921   2.41776   2.90723 
 H                     0.95      1.55396   1.42019 
 C                    -3.5598    1.28166  -0.60086 
 C                    -4.2665    2.4992    0.02343 
 H                    -3.53676   3.22881   0.30637 
 H                    -4.9393    2.92602  -0.69076 
 H                    -4.81446   2.18874   0.88845 
 O                    -3.34892   1.24405  -1.8409 
 
 NAtoms=     19 NQM=     19 NQMF=      0 NMic=      0 NMicF=      0 NTot=     19.
                    Isotopes and Nuclear Properties:
 (Nuclear quadrupole moments (NQMom) in fm**2, nuclear magnetic moments (NMagM)
  in nuclear magnetons)

  Atom         1           2           3           4           5           6           7           8           9          10
 IAtWgt=          12           1           1          12          14           1          16          14           1          12
 AtmWgt=  12.0000000   1.0078250   1.0078250  12.0000000  14.0030740   1.0078250  15.9949146  14.0030740   1.0078250  12.0000000
 NucSpn=           0           1           1           0           2           1           0           2           1           0
 AtZEff=   0.0000000   0.0000000   0.0000000   0.0000000   0.0000000   0.0000000   0.0000000   0.0000000   0.0000000   0.0000000
 NQMom=    0.0000000   0.0000000   0.0000000   0.0000000   2.0440000   0.0000000   0.0000000   2.0440000   0.0000000   0.0000000
 NMagM=    0.0000000   2.7928460   2.7928460   0.0000000   0.4037610   2.7928460   0.0000000   0.4037610   2.7928460   0.0000000

  Atom        11          12          13          14          15          16          17          18          19
 IAtWgt=           1           1           1          12          12           1           1           1          16
 AtmWgt=   1.0078250   1.0078250   1.0078250  12.0000000  12.0000000   1.0078250   1.0078250   1.0078250  15.9949146
 NucSpn=           1           1           1           0           0           1           1           1           0
 AtZEff=   0.0000000   0.0000000   0.0000000   0.0000000   0.0000000   0.0000000   0.0000000   0.0000000   0.0000000
 NQMom=    0.0000000   0.0000000   0.0000000   0.0000000   0.0000000   0.0000000   0.0000000   0.0000000   0.0000000
 NMagM=    2.7928460   2.7928460   2.7928460   0.0000000   0.0000000   2.7928460   2.7928460   2.7928460   0.0000000
 Leave Link  101 at Fri Feb 22 07:42:26 2013, MaxMem= 2147483648 cpu:       0.9
 (Enter /home/ztw1e12/g09/l103.exe)

 GradGradGradGradGradGradGradGradGradGradGradGradGradGradGradGradGradGrad
 Berny optimization.
 Initialization pass.
                           ----------------------------
                           !    Initial Parameters    !
                           ! (Angstroms and Degrees)  !
 --------------------------                            --------------------------
 ! Name  Definition              Value          Derivative Info.                !
 --------------------------------------------------------------------------------
 ! R1    R(1,2)                  1.07           estimate D2E/DX2                !
 ! R2    R(1,3)                  1.07           estimate D2E/DX2                !
 ! R3    R(1,4)                  1.54           estimate D2E/DX2                !
 ! R4    R(1,5)                  1.47           estimate D2E/DX2                !
 ! R5    R(4,7)                  1.2584         estimate D2E/DX2                !
 ! R6    R(4,8)                  1.47           estimate D2E/DX2                !
 ! R7    R(5,6)                  1.0            estimate D2E/DX2                !
 ! R8    R(5,14)                 1.47           estimate D2E/DX2                !
 ! R9    R(8,9)                  1.0            estimate D2E/DX2                !
 ! R10   R(8,10)                 1.47           estimate D2E/DX2                !
 ! R11   R(10,11)                1.07           estimate D2E/DX2                !
 ! R12   R(10,12)                1.07           estimate D2E/DX2                !
 ! R13   R(10,13)                1.07           estimate D2E/DX2                !
 ! R14   R(14,15)                1.54           estimate D2E/DX2                !
 ! R15   R(14,19)                1.2584         estimate D2E/DX2                !
 ! R16   R(15,16)                1.07           estimate D2E/DX2                !
 ! R17   R(15,17)                1.07           estimate D2E/DX2                !
 ! R18   R(15,18)                1.07           estimate D2E/DX2                !
 ! A1    A(2,1,3)              109.4712         estimate D2E/DX2                !
 ! A2    A(2,1,4)              109.4712         estimate D2E/DX2                !
 ! A3    A(2,1,5)              109.4712         estimate D2E/DX2                !
 ! A4    A(3,1,4)              109.4712         estimate D2E/DX2                !
 ! A5    A(3,1,5)              109.4712         estimate D2E/DX2                !
 ! A6    A(4,1,5)              109.4712         estimate D2E/DX2                !
 ! A7    A(1,4,7)              120.0            estimate D2E/DX2                !
 ! A8    A(1,4,8)              120.0            estimate D2E/DX2                !
 ! A9    A(7,4,8)              120.0            estimate D2E/DX2                !
 ! A10   A(1,5,6)              109.4712         estimate D2E/DX2                !
 ! A11   A(1,5,14)             109.4712         estimate D2E/DX2                !
 ! A12   A(6,5,14)             109.4712         estimate D2E/DX2                !
 ! A13   A(4,8,9)              109.4712         estimate D2E/DX2                !
 ! A14   A(4,8,10)             109.4712         estimate D2E/DX2                !
 ! A15   A(9,8,10)             109.4712         estimate D2E/DX2                !
 ! A16   A(8,10,11)            109.4712         estimate D2E/DX2                !
 ! A17   A(8,10,12)            109.4712         estimate D2E/DX2                !
 ! A18   A(8,10,13)            109.4712         estimate D2E/DX2                !
 ! A19   A(11,10,12)           109.4712         estimate D2E/DX2                !
 ! A20   A(11,10,13)           109.4712         estimate D2E/DX2                !
 ! A21   A(12,10,13)           109.4712         estimate D2E/DX2                !
 ! A22   A(5,14,15)            120.0            estimate D2E/DX2                !
 ! A23   A(5,14,19)            120.0            estimate D2E/DX2                !
 ! A24   A(15,14,19)           120.0            estimate D2E/DX2                !
 ! A25   A(14,15,16)           109.4712         estimate D2E/DX2                !
 ! A26   A(14,15,17)           109.4712         estimate D2E/DX2                !
 ! A27   A(14,15,18)           109.4712         estimate D2E/DX2                !
 ! A28   A(16,15,17)           109.4712         estimate D2E/DX2                !
 ! A29   A(16,15,18)           109.4712         estimate D2E/DX2                !
 ! A30   A(17,15,18)           109.4712         estimate D2E/DX2                !
 ! D1    D(2,1,4,7)            -90.0            estimate D2E/DX2                !
 ! D2    D(2,1,4,8)             90.0            estimate D2E/DX2                !
 ! D3    D(3,1,4,7)            150.0            estimate D2E/DX2                !
 ! D4    D(3,1,4,8)            -30.0            estimate D2E/DX2                !
 ! D5    D(5,1,4,7)             30.0            estimate D2E/DX2                !
 ! D6    D(5,1,4,8)           -150.0            estimate D2E/DX2                !
 ! D7    D(2,1,5,6)            -60.0            estimate D2E/DX2                !
 ! D8    D(2,1,5,14)            60.0            estimate D2E/DX2                !
 ! D9    D(3,1,5,6)             60.0            estimate D2E/DX2                !
 ! D10   D(3,1,5,14)          -180.0            estimate D2E/DX2                !
 ! D11   D(4,1,5,6)            180.0            estimate D2E/DX2                !
 ! D12   D(4,1,5,14)           -60.0            estimate D2E/DX2                !
 ! D13   D(1,4,8,9)             30.0            estimate D2E/DX2                !
 ! D14   D(1,4,8,10)           150.0            estimate D2E/DX2                !
 ! D15   D(7,4,8,9)           -150.0            estimate D2E/DX2                !
 ! D16   D(7,4,8,10)           -30.0            estimate D2E/DX2                !
 ! D17   D(1,5,14,15)          -30.0            estimate D2E/DX2                !
 ! D18   D(1,5,14,19)          150.0            estimate D2E/DX2                !
 ! D19   D(6,5,14,15)           90.0            estimate D2E/DX2                !
 ! D20   D(6,5,14,19)          -90.0            estimate D2E/DX2                !
 ! D21   D(4,8,10,11)           60.0            estimate D2E/DX2                !
 ! D22   D(4,8,10,12)          180.0            estimate D2E/DX2                !
 ! D23   D(4,8,10,13)          -60.0            estimate D2E/DX2                !
 ! D24   D(9,8,10,11)          180.0            estimate D2E/DX2                !
 ! D25   D(9,8,10,12)          -60.0            estimate D2E/DX2                !
 ! D26   D(9,8,10,13)           60.0            estimate D2E/DX2                !
 ! D27   D(5,14,15,16)          90.0            estimate D2E/DX2                !
 ! D28   D(5,14,15,17)        -150.0            estimate D2E/DX2                !
 ! D29   D(5,14,15,18)         -30.0            estimate D2E/DX2                !
 ! D30   D(19,14,15,16)        -90.0            estimate D2E/DX2                !
 ! D31   D(19,14,15,17)         30.0            estimate D2E/DX2                !
 ! D32   D(19,14,15,18)        150.0            estimate D2E/DX2                !
 --------------------------------------------------------------------------------
 Trust Radius=3.00D-01 FncErr=1.00D-07 GrdErr=1.00D-06
 Number of steps in this run=  90 maximum allowed number of steps= 114.
 GradGradGradGradGradGradGradGradGradGradGradGradGradGradGradGradGradGrad

 Leave Link  103 at Fri Feb 22 07:42:26 2013, MaxMem= 2147483648 cpu:       0.4
 (Enter /home/ztw1e12/g09/l202.exe)
                          Input orientation:                          
 ---------------------------------------------------------------------
 Center     Atomic      Atomic             Coordinates (Angstroms)
 Number     Number       Type             X           Y           Z
 ---------------------------------------------------------------------
      1          6           0       -2.809228    0.666687    1.594783
      2          1           0       -3.675833    1.128065    2.020252
      3          1           0       -2.497511   -0.147293    2.215403
      4          6           0       -1.672932    1.701437    1.496166
      5          7           0       -3.131549    0.163385    0.251765
      6          1           0       -3.869403   -0.508531    0.315802
      7          8           0       -1.549426    2.403397    0.459070
      8          7           0       -0.732561    1.869158    2.613516
      9          1           0       -0.631438    0.999904    3.097429
     10          6           0        0.574726    2.295680    2.093919
     11          1           0        0.466525    3.225782    1.576132
     12          1           0        1.259214    2.417763    2.907228
     13          1           0        0.950001    1.553957    1.420186
     14          6           0       -3.559796    1.281656   -0.600863
     15          6           0       -4.266500    2.499204    0.023433
     16          1           0       -3.536765    3.228813    0.306375
     17          1           0       -4.939299    2.926017   -0.690761
     18          1           0       -4.814460    2.188740    0.888449
     19          8           0       -3.348919    1.244046   -1.840898
 ---------------------------------------------------------------------
                    Distance matrix (angstroms):
                    1          2          3          4          5
     1  C    0.000000
     2  H    1.070000   0.000000
     3  H    1.070000   1.747303   0.000000
     4  C    1.540000   2.148263   2.148263   0.000000
     5  N    1.470000   2.086720   2.086720   2.457987   0.000000
     6  H    2.034920   2.370879   2.370879   3.331921   1.000000
     7  O    2.427572   2.930080   3.238764   1.258400   2.750226
     8  N    2.606971   3.092577   2.709173   1.470000   3.773947
     9  H    2.666785   3.231884   2.361410   2.034920   3.879190
    10  C    3.788654   4.408628   3.927023   2.400500   4.655823
    11  H    4.156906   4.664417   4.535616   2.628174   4.906971
    12  H    4.619632   5.177329   4.601208   3.331921   5.604686
    13  H    3.866462   4.683994   3.925807   2.628174   4.467432
    14  C    2.400500   2.628174   3.331921   2.852017   1.470000
    15  C    2.819735   2.493230   3.864971   3.087389   2.606971
    16  H    2.958682   2.714748   4.015287   2.687444   3.092577
    17  H    3.855579   3.489780   4.883989   4.117207   3.433431
    18  H    2.614672   1.924183   3.547691   3.236662   2.709173
    19  O    3.525410   3.876701   4.371991   3.762198   2.365231
                    6          7          8          9         10
     6  H    0.000000
     7  O    3.725875   0.000000
     8  N    4.557705   2.365231   0.000000
     9  H    4.527388   3.126249   1.000000   0.000000
    10  C    5.547574   2.682602   1.470000   2.034920   0.000000
    11  H    5.859505   2.447081   2.086720   2.911082   1.070000
    12  H    6.448364   3.725875   2.086720   2.370879   1.070000
    13  H    5.357254   2.809346   2.086720   2.370879   1.070000
    14  C    2.034920   2.534432   4.320955   4.725677   5.038289
    15  C    3.047890   2.753444   4.426535   4.991095   5.269326
    16  H    3.752130   2.157346   3.877515   4.604231   4.579345
    17  H    3.735500   3.617524   5.452691   6.051277   6.209366
    18  H    2.914846   3.300135   4.442959   4.877560   5.523397
    19  O    2.827328   3.141993   5.203643   5.641931   5.655414
                   11         12         13         14         15
    11  H    0.000000
    12  H    1.747303   0.000000
    13  H    1.747303   1.747303   0.000000
    14  C    4.972946   6.067973   4.949449   0.000000
    15  C    5.033917   6.233492   5.482362   1.540000   0.000000
    16  H    4.199836   5.515764   4.916989   2.148263   1.070000
    17  H    5.869548   7.185082   6.404880   2.148263   1.070000
    18  H    5.425602   6.404485   5.823632   2.148263   1.070000
    19  O    5.491902   6.719911   5.404760   1.258400   2.427572
                   16         17         18         19
    16  H    0.000000
    17  H    1.747303   0.000000
    18  H    1.747303   1.747303   0.000000
    19  O    2.930080   2.584792   3.238764   0.000000
 Stoichiometry    C5H10N2O2
 Framework group  C1[X(C5H10N2O2)]
 Deg. of freedom    51
 Full point group                 C1      NOp   1
 Largest Abelian subgroup         C1      NOp   1
 Largest concise Abelian subgroup C1      NOp   1
                         Standard orientation:                         
 ---------------------------------------------------------------------
 Center     Atomic      Atomic             Coordinates (Angstroms)
 Number     Number       Type             X           Y           Z
 ---------------------------------------------------------------------
      1          6           0        0.017709    1.378616    0.098355
      2          1           0        0.359603    1.612180    1.084993
      3          1           0       -0.493314    2.224588   -0.311630
      4          6           0       -0.944424    0.177707    0.159340
      5          7           0        1.168461    1.041837   -0.752085
      6          1           0        1.793223    1.821648   -0.791686
      7          8           0       -0.496363   -0.993484    0.053875
      8          7           0       -2.386226    0.399513    0.340752
      9          1           0       -2.642133    1.276977   -0.064918
     10          6           0       -3.134816   -0.681260   -0.316851
     11          1           0       -2.860995   -1.620147    0.117215
     12          1           0       -4.184291   -0.519810   -0.184803
     13          1           0       -2.904054   -0.690509   -1.361631
     14          6           0        1.870521   -0.120387   -0.188835
     15          6           0        1.859887   -0.363786    1.331771
     16          1           0        1.018589   -0.972565    1.589657
     17          1           0        2.762122   -0.861823    1.619576
     18          1           0        1.791562    0.573914    1.842604
     19          8           0        2.480211   -0.916421   -0.949216
 ---------------------------------------------------------------------
 Rotational constants (GHZ):      3.2743258      0.9538094      0.8933784
 Leave Link  202 at Fri Feb 22 07:42:27 2013, MaxMem= 2147483648 cpu:       0.6
 (Enter /home/ztw1e12/g09/l301.exe)
 Standard basis: CC-pVTZ (5D, 7F)
 Ernie: Thresh=  0.10000D-02 Tol=  0.10000D-05 Strict=F.
 Ernie:  27 primitive shells out of 314 were deleted.
 There are   410 symmetry adapted basis functions of A   symmetry.
 Integral buffers will be    131072 words long.
 Raffenetti 2 integral format.
 Two-electron integral symmetry is turned on.
   410 basis functions,   638 primitive gaussians,   465 cartesian basis functions
    35 alpha electrons       35 beta electrons
       nuclear repulsion energy       468.1828986512 Hartrees.
 IExCor= 4235 DFT=T Ex+Corr=M06 ExCW=0 ScaHFX=  0.270000
 ScaDFX=  1.000000  1.000000  1.000000  1.000000 ScalE2=  1.000000  1.000000
 IRadAn=      5 IRanWt=     -1 IRanGd=            0 ICorTp=0
 NAtoms=   19 NActive=   19 NUniq=   19 SFac= 7.50D-01 NAtFMM=   80 NAOKFM=F Big=F
 Leave Link  301 at Fri Feb 22 07:42:27 2013, MaxMem= 2147483648 cpu:       1.5
 (Enter /home/ztw1e12/g09/l302.exe)
 NPDir=0 NMtPBC=     1 NCelOv=     1 NCel=       1 NClECP=     1 NCelD=      1
         NCelK=      1 NCelE2=     1 NClLst=     1 CellRange=     0.0.
 One-electron integrals computed using PRISM.
 NBasis=   410 RedAO= T  NBF=   410
 NBsUse=   410 1.00D-06 NBFU=   410
 Precomputing XC quadrature grid using
 IXCGrd= 2 IRadAn=           5 IRanWt=          -1 IRanGd=           0 AccXCQ= 1.00D-10.
 NRdTot=    1590 NPtTot=      426378 NUsed=      437768 NTot=      437800
 NSgBfM=   464   464   465   465   465 NAtAll=    19    19.
 Leave Link  302 at Fri Feb 22 07:42:28 2013, MaxMem= 2147483648 cpu:       9.1
 (Enter /home/ztw1e12/g09/l303.exe)
 DipDrv:  MaxL=1.
 Leave Link  303 at Fri Feb 22 07:42:28 2013, MaxMem= 2147483648 cpu:       1.3
 (Enter /home/ztw1e12/g09/l401.exe)
 Harris functional with IExCor= 1009 diagonalized for initial guess.
 ExpMin= 1.03D-01 ExpMax= 1.53D+04 ExpMxC= 5.22D+02 IAcc=3 IRadAn=         5 AccDes= 0.00D+00
 HarFok:  IExCor= 1009 AccDes= 0.00D+00 IRadAn=         5 IDoV= 1
 ScaDFX=  1.000000  1.000000  1.000000  1.000000
 FoFCou: FMM=F IPFlag=           0 FMFlag=      100000 FMFlg1=           0
         NFxFlg=           0 DoJE=T BraDBF=F KetDBF=T FulRan=T
         Omega=  0.000000  0.000000  1.000000  0.000000  0.000000 ICntrl=     500 IOpCl=  0
         NMat0=    1 NMatS0=    1 NMatT0=    0 NMatD0=    1 NMtDS0=    0 NMtDT0=    0
         I1Cent=           4 NGrid=           0.
 Petite list used in FoFCou.
 Harris En= -456.335341003367    
 Initial guess orbital symmetries:
       Occupied  (A) (A) (A) (A) (A) (A) (A) (A) (A) (A) (A) (A)
                 (A) (A) (A) (A) (A) (A) (A) (A) (A) (A) (A) (A)
                 (A) (A) (A) (A) (A) (A) (A) (A) (A) (A) (A)
       Virtual   (A) (A) (A) (A) (A) (A) (A) (A) (A) (A) (A) (A)
                 (A) (A) (A) (A) (A) (A) (A) (A) (A) (A) (A) (A)
                 (A) (A) (A) (A) (A) (A) (A) (A) (A) (A) (A) (A)
                 (A) (A) (A) (A) (A) (A) (A) (A) (A) (A) (A) (A)
                 (A) (A) (A) (A) (A) (A) (A) (A) (A) (A) (A) (A)
                 (A) (A) (A) (A) (A) (A) (A) (A) (A) (A) (A) (A)
                 (A) (A) (A) (A) (A) (A) (A) (A) (A) (A) (A) (A)
                 (A) (A) (A) (A) (A) (A) (A) (A) (A) (A) (A) (A)
                 (A) (A) (A) (A) (A) (A) (A) (A) (A) (A) (A) (A)
                 (A) (A) (A) (A) (A) (A) (A) (A) (A) (A) (A) (A)
                 (A) (A) (A) (A) (A) (A) (A) (A) (A) (A) (A) (A)
                 (A) (A) (A) (A) (A) (A) (A) (A) (A) (A) (A) (A)
                 (A) (A) (A) (A) (A) (A) (A) (A) (A) (A) (A) (A)
                 (A) (A) (A) (A) (A) (A) (A) (A) (A) (A) (A) (A)
                 (A) (A) (A) (A) (A) (A) (A) (A) (A) (A) (A) (A)
                 (A) (A) (A) (A) (A) (A) (A) (A) (A) (A) (A) (A)
                 (A) (A) (A) (A) (A) (A) (A) (A) (A) (A) (A) (A)
                 (A) (A) (A) (A) (A) (A) (A) (A) (A) (A) (A) (A)
                 (A) (A) (A) (A) (A) (A) (A) (A) (A) (A) (A) (A)
                 (A) (A) (A) (A) (A) (A) (A) (A) (A) (A) (A) (A)
                 (A) (A) (A) (A) (A) (A) (A) (A) (A) (A) (A) (A)
                 (A) (A) (A) (A) (A) (A) (A) (A) (A) (A) (A) (A)
                 (A) (A) (A) (A) (A) (A) (A) (A) (A) (A) (A) (A)
                 (A) (A) (A) (A) (A) (A) (A) (A) (A) (A) (A) (A)
                 (A) (A) (A) (A) (A) (A) (A) (A) (A) (A) (A) (A)
                 (A) (A) (A) (A) (A) (A) (A) (A) (A) (A) (A) (A)
                 (A) (A) (A) (A) (A) (A) (A) (A) (A) (A) (A) (A)
                 (A) (A) (A) (A) (A) (A) (A) (A) (A) (A) (A) (A)
                 (A) (A) (A) (A) (A) (A) (A) (A) (A) (A) (A) (A)
                 (A) (A) (A) (A) (A) (A) (A) (A) (A) (A) (A) (A)
                 (A) (A) (A) (A) (A) (A) (A) (A) (A) (A) (A) (A)
                 (A) (A) (A)
 The electronic state of the initial guess is 1-A.
 Leave Link  401 at Fri Feb 22 07:42:32 2013, MaxMem= 2147483648 cpu:      46.7
 (Enter /home/ztw1e12/g09/l502.exe)
 Closed shell SCF:
 Requested convergence on RMS density matrix=1.00D-08 within 128 cycles.
 Requested convergence on MAX density matrix=1.00D-06.
 Requested convergence on             energy=1.00D-06.
 No special actions if energy rises.
 Using DIIS extrapolation, IDIIS=  1040.
 Integral symmetry usage will be decided dynamically.
       437584 words used for storage of precomputed grid.
 IEnd=     1113373 IEndB=     1113373 NGot=  2147483648 MDV=  2146603606
 LenX=  2146603606 LenY=  2146386916
 Fock matrices will be formed incrementally for  20 cycles.
 Integral accuracy reduced to 1.0D-05 until final iterations.

 Cycle   1  Pass 0  IDiag  1:
 FoFCou: FMM=F IPFlag=           0 FMFlag=      100000 FMFlg1=           0
         NFxFlg=           0 DoJE=F BraDBF=F KetDBF=F FulRan=T
         Omega=  0.000000  0.000000  1.000000  0.000000  0.000000 ICntrl=       0 IOpCl=  0
         NMat0=    1 NMatS0=    1 NMatT0=    0 NMatD0=    1 NMtDS0=    0 NMtDT0=    0
         I1Cent=           0 NGrid=           0.
 Symmetry not used in FoFCou.
 E= -456.065115816661    
 DIIS: error= 2.26D-02 at cycle   1 NSaved=   1.
 NSaved= 1 IEnMin= 1 EnMin= -456.065115816661     IErMin= 1 ErrMin= 2.26D-02
 ErrMax= 2.26D-02 EMaxC= 1.00D-01 BMatC= 3.24D-01 BMatP= 3.24D-01
 IDIUse=3 WtCom= 7.74D-01 WtEn= 2.26D-01
 Coeff-Com:  0.100D+01
 Coeff-En:   0.100D+01
 Coeff:      0.100D+01
 Gap=     0.217 Goal=   None    Shift=    0.000
 GapD=    0.217 DampG=1.000 DampE=0.500 DampFc=0.5000 IDamp=-1.
 Damping current iteration by 5.00D-01
 RMSDP=3.06D-03 MaxDP=3.36D-01              OVMax= 2.35D-01

 Cycle   2  Pass 0  IDiag  1:
 RMSU=  1.08D-03    CP:  9.99D-01
 E= -456.136639995856     Delta-E=       -0.071524179195 Rises=F Damp=T
 DIIS: error= 9.32D-03 at cycle   2 NSaved=   2.
 NSaved= 2 IEnMin= 2 EnMin= -456.136639995856     IErMin= 2 ErrMin= 9.32D-03
 ErrMax= 9.32D-03 EMaxC= 1.00D-01 BMatC= 5.23D-02 BMatP= 3.24D-01
 IDIUse=3 WtCom= 9.07D-01 WtEn= 9.32D-02
 Coeff-Com:  0.234D+00 0.766D+00
 Coeff-En:   0.353D+00 0.647D+00
 Coeff:      0.245D+00 0.755D+00
 Gap=     0.289 Goal=   None    Shift=    0.000
 RMSDP=9.43D-04 MaxDP=8.81D-02 DE=-7.15D-02 OVMax= 2.17D-01

 Cycle   3  Pass 0  IDiag  1:
 RMSU=  5.23D-04    CP:  1.00D+00  6.18D-01
 E= -456.299730531886     Delta-E=       -0.163090536030 Rises=F Damp=F
 DIIS: error= 1.02D-02 at cycle   3 NSaved=   3.
 NSaved= 3 IEnMin= 3 EnMin= -456.299730531886     IErMin= 2 ErrMin= 9.32D-03
 ErrMax= 1.02D-02 EMaxC= 1.00D-01 BMatC= 4.66D-02 BMatP= 5.23D-02
 IDIUse=3 WtCom= 8.98D-01 WtEn= 1.02D-01
 Coeff-Com:  0.888D-01 0.484D+00 0.427D+00
 Coeff-En:   0.000D+00 0.000D+00 0.100D+01
 Coeff:      0.798D-01 0.435D+00 0.485D+00
 Gap=     0.251 Goal=   None    Shift=    0.000
 RMSDP=4.05D-04 MaxDP=1.50D-02 DE=-1.63D-01 OVMax= 5.65D-02

 Cycle   4  Pass 0  IDiag  1:
 RMSU=  2.43D-04    CP:  1.00D+00  6.61D-01  7.25D-01
 E= -456.334640036134     Delta-E=       -0.034909504247 Rises=F Damp=F
 DIIS: error= 2.93D-03 at cycle   4 NSaved=   4.
 NSaved= 4 IEnMin= 4 EnMin= -456.334640036134     IErMin= 4 ErrMin= 2.93D-03
 ErrMax= 2.93D-03 EMaxC= 1.00D-01 BMatC= 4.51D-03 BMatP= 4.66D-02
 IDIUse=3 WtCom= 9.71D-01 WtEn= 2.93D-02
 Coeff-Com:  0.190D-01 0.860D-01 0.252D+00 0.643D+00
 Coeff-En:   0.000D+00 0.000D+00 0.706D-01 0.929D+00
 Coeff:      0.185D-01 0.835D-01 0.247D+00 0.651D+00
 Gap=     0.234 Goal=   None    Shift=    0.000
 RMSDP=1.08D-04 MaxDP=4.22D-03 DE=-3.49D-02 OVMax= 1.31D-02

 Cycle   5  Pass 0  IDiag  1:
 RMSU=  4.14D-05    CP:  1.00D+00  6.38D-01  7.95D-01  8.07D-01
 E= -456.337812017147     Delta-E=       -0.003171981013 Rises=F Damp=F
 DIIS: error= 6.22D-04 at cycle   5 NSaved=   5.
 NSaved= 5 IEnMin= 5 EnMin= -456.337812017147     IErMin= 5 ErrMin= 6.22D-04
 ErrMax= 6.22D-04 EMaxC= 1.00D-01 BMatC= 2.64D-04 BMatP= 4.51D-03
 IDIUse=3 WtCom= 9.94D-01 WtEn= 6.22D-03
 Coeff-Com:  0.423D-02 0.887D-02 0.940D-01 0.334D+00 0.559D+00
 Coeff-En:   0.000D+00 0.000D+00 0.000D+00 0.000D+00 0.100D+01
 Coeff:      0.421D-02 0.882D-02 0.934D-01 0.332D+00 0.561D+00
 Gap=     0.234 Goal=   None    Shift=    0.000
 RMSDP=2.98D-05 MaxDP=1.55D-03 DE=-3.17D-03 OVMax= 4.27D-03

 Cycle   6  Pass 0  IDiag  1:
 RMSU=  1.50D-05    CP:  1.00D+00  6.44D-01  7.93D-01  8.30D-01  7.10D-01
 E= -456.338009625204     Delta-E=       -0.000197608057 Rises=F Damp=F
 DIIS: error= 1.75D-04 at cycle   6 NSaved=   6.
 NSaved= 6 IEnMin= 6 EnMin= -456.338009625204     IErMin= 6 ErrMin= 1.75D-04
 ErrMax= 1.75D-04 EMaxC= 1.00D-01 BMatC= 2.83D-05 BMatP= 2.64D-04
 IDIUse=3 WtCom= 9.98D-01 WtEn= 1.75D-03
 Coeff-Com:  0.219D-03-0.577D-02 0.169D-01 0.809D-01 0.288D+00 0.619D+00
 Coeff-En:   0.000D+00 0.000D+00 0.000D+00 0.000D+00 0.497D-01 0.950D+00
 Coeff:      0.218D-03-0.576D-02 0.169D-01 0.808D-01 0.288D+00 0.620D+00
 Gap=     0.234 Goal=   None    Shift=    0.000
 RMSDP=8.92D-06 MaxDP=4.50D-04 DE=-1.98D-04 OVMax= 1.23D-03

 Initial convergence to 1.0D-05 achieved.  Increase integral accuracy.
 Cycle   7  Pass 1  IDiag  1:
 E= -456.338028324680     Delta-E=       -0.000018699476 Rises=F Damp=F
 DIIS: error= 4.25D-05 at cycle   1 NSaved=   1.
 NSaved= 1 IEnMin= 1 EnMin= -456.338028324680     IErMin= 1 ErrMin= 4.25D-05
 ErrMax= 4.25D-05 EMaxC= 1.00D-01 BMatC= 2.13D-06 BMatP= 2.13D-06
 IDIUse=1 WtCom= 1.00D+00 WtEn= 0.00D+00
 Coeff-Com:  0.100D+01
 Coeff:      0.100D+01
 Gap=     0.234 Goal=   None    Shift=    0.000
 RMSDP=8.92D-06 MaxDP=4.50D-04 DE=-1.87D-05 OVMax= 5.52D-04

 Cycle   8  Pass 1  IDiag  1:
 RMSU=  6.41D-06    CP:  1.00D+00
 E= -456.338027327463     Delta-E=        0.000000997217 Rises=F Damp=F
 DIIS: error= 6.88D-05 at cycle   2 NSaved=   2.
 NSaved= 2 IEnMin= 1 EnMin= -456.338028324680     IErMin= 1 ErrMin= 4.25D-05
 ErrMax= 6.88D-05 EMaxC= 1.00D-01 BMatC= 3.35D-06 BMatP= 2.13D-06
 IDIUse=1 WtCom= 1.00D+00 WtEn= 0.00D+00
 Coeff-Com:  0.568D+00 0.432D+00
 Coeff:      0.568D+00 0.432D+00
 Gap=     0.234 Goal=   None    Shift=    0.000
 RMSDP=3.65D-06 MaxDP=1.59D-04 DE= 9.97D-07 OVMax= 4.96D-04

 Cycle   9  Pass 1  IDiag  1:
 RMSU=  2.40D-06    CP:  1.00D+00  8.54D-01
 E= -456.338029629501     Delta-E=       -0.000002302039 Rises=F Damp=F
 DIIS: error= 3.25D-05 at cycle   3 NSaved=   3.
 NSaved= 3 IEnMin= 3 EnMin= -456.338029629501     IErMin= 3 ErrMin= 3.25D-05
 ErrMax= 3.25D-05 EMaxC= 1.00D-01 BMatC= 4.20D-07 BMatP= 2.13D-06
 IDIUse=1 WtCom= 1.00D+00 WtEn= 0.00D+00
 Coeff-Com:  0.117D+00 0.262D+00 0.621D+00
 Coeff:      0.117D+00 0.262D+00 0.621D+00
 Gap=     0.234 Goal=   None    Shift=    0.000
 RMSDP=1.11D-06 MaxDP=5.01D-05 DE=-2.30D-06 OVMax= 1.95D-04

 Cycle  10  Pass 1  IDiag  1:
 RMSU=  5.46D-07    CP:  1.00D+00  8.97D-01  7.94D-01
 E= -456.338029886252     Delta-E=       -0.000000256751 Rises=F Damp=F
 DIIS: error= 1.20D-05 at cycle   4 NSaved=   4.
 NSaved= 4 IEnMin= 4 EnMin= -456.338029886252     IErMin= 4 ErrMin= 1.20D-05
 ErrMax= 1.20D-05 EMaxC= 1.00D-01 BMatC= 6.71D-08 BMatP= 4.20D-07
 IDIUse=1 WtCom= 1.00D+00 WtEn= 0.00D+00
 Coeff-Com:  0.881D-02 0.114D+00 0.380D+00 0.498D+00
 Coeff:      0.881D-02 0.114D+00 0.380D+00 0.498D+00
 Gap=     0.234 Goal=   None    Shift=    0.000
 RMSDP=4.05D-07 MaxDP=1.74D-05 DE=-2.57D-07 OVMax= 5.66D-05

 Cycle  11  Pass 1  IDiag  1:
 RMSU=  1.88D-07    CP:  1.00D+00  9.06D-01  8.13D-01  6.27D-01
 E= -456.338029934997     Delta-E=       -0.000000048745 Rises=F Damp=F
 DIIS: error= 1.48D-06 at cycle   5 NSaved=   5.
 NSaved= 5 IEnMin= 5 EnMin= -456.338029934997     IErMin= 5 ErrMin= 1.48D-06
 ErrMax= 1.48D-06 EMaxC= 1.00D-01 BMatC= 2.57D-09 BMatP= 6.71D-08
 IDIUse=1 WtCom= 1.00D+00 WtEn= 0.00D+00
 Coeff-Com: -0.485D-02 0.339D-01 0.130D+00 0.237D+00 0.604D+00
 Coeff:     -0.485D-02 0.339D-01 0.130D+00 0.237D+00 0.604D+00
 Gap=     0.234 Goal=   None    Shift=    0.000
 RMSDP=1.03D-07 MaxDP=6.15D-06 DE=-4.87D-08 OVMax= 1.16D-05

 Cycle  12  Pass 1  IDiag  1:
 RMSU=  6.42D-08    CP:  1.00D+00  9.07D-01  8.12D-01  6.65D-01  8.60D-01
 E= -456.338029936919     Delta-E=       -0.000000001923 Rises=F Damp=F
 DIIS: error= 4.82D-07 at cycle   6 NSaved=   6.
 NSaved= 6 IEnMin= 6 EnMin= -456.338029936919     IErMin= 6 ErrMin= 4.82D-07
 ErrMax= 4.82D-07 EMaxC= 1.00D-01 BMatC= 1.97D-10 BMatP= 2.57D-09
 IDIUse=1 WtCom= 1.00D+00 WtEn= 0.00D+00
 Coeff-Com: -0.281D-02 0.597D-02 0.254D-01 0.635D-01 0.269D+00 0.639D+00
 Coeff:     -0.281D-02 0.597D-02 0.254D-01 0.635D-01 0.269D+00 0.639D+00
 Gap=     0.234 Goal=   None    Shift=    0.000
 RMSDP=2.72D-08 MaxDP=1.58D-06 DE=-1.92D-09 OVMax= 3.69D-06

 Cycle  13  Pass 1  IDiag  1:
 RMSU=  1.55D-08    CP:  1.00D+00  9.08D-01  8.12D-01  6.72D-01  9.06D-01
                    CP:  9.17D-01
 E= -456.338029937064     Delta-E=       -0.000000000145 Rises=F Damp=F
 DIIS: error= 1.83D-07 at cycle   7 NSaved=   7.
 NSaved= 7 IEnMin= 7 EnMin= -456.338029937064     IErMin= 7 ErrMin= 1.83D-07
 ErrMax= 1.83D-07 EMaxC= 1.00D-01 BMatC= 3.14D-11 BMatP= 1.97D-10
 IDIUse=1 WtCom= 1.00D+00 WtEn= 0.00D+00
 Coeff-Com: -0.969D-03-0.709D-03-0.145D-02 0.649D-02 0.745D-01 0.333D+00
 Coeff-Com:  0.589D+00
 Coeff:     -0.969D-03-0.709D-03-0.145D-02 0.649D-02 0.745D-01 0.333D+00
 Coeff:      0.589D+00
 Gap=     0.234 Goal=   None    Shift=    0.000
 RMSDP=1.04D-08 MaxDP=5.47D-07 DE=-1.45D-10 OVMax= 1.50D-06

 Cycle  14  Pass 1  IDiag  1:
 RMSU=  5.64D-09    CP:  1.00D+00  9.08D-01  8.12D-01  6.75D-01  9.22D-01
                    CP:  9.46D-01  8.71D-01
 E= -456.338029937089     Delta-E=       -0.000000000024 Rises=F Damp=F
 DIIS: error= 8.43D-08 at cycle   8 NSaved=   8.
 NSaved= 8 IEnMin= 8 EnMin= -456.338029937089     IErMin= 8 ErrMin= 8.43D-08
 ErrMax= 8.43D-08 EMaxC= 1.00D-01 BMatC= 5.37D-12 BMatP= 3.14D-11
 IDIUse=1 WtCom= 1.00D+00 WtEn= 0.00D+00
 Coeff-Com: -0.230D-03-0.105D-02-0.368D-02-0.348D-02 0.129D-01 0.128D+00
 Coeff-Com:  0.349D+00 0.518D+00
 Coeff:     -0.230D-03-0.105D-02-0.368D-02-0.348D-02 0.129D-01 0.128D+00
 Coeff:      0.349D+00 0.518D+00
 Gap=     0.234 Goal=   None    Shift=    0.000
 RMSDP=5.21D-09 MaxDP=3.59D-07 DE=-2.43D-11 OVMax= 6.33D-07

 SCF Done:  E(RM06) =  -456.338029937     A.U. after   14 cycles
             Convg  =    0.5214D-08             -V/T =  2.0079
 KE= 4.527466768294D+02 PE=-2.002240840883D+03 EE= 6.249732354649D+02
 Leave Link  502 at Fri Feb 22 07:46:41 2013, MaxMem= 2147483648 cpu:    2986.1
 (Enter /home/ztw1e12/g09/l601.exe)
 Copying SCF densities to generalized density rwf, IOpCl= 0 IROHF=0.

 **********************************************************************

            Population analysis using the SCF density.

 **********************************************************************

 Orbital symmetries:
       Occupied  (A) (A) (A) (A) (A) (A) (A) (A) (A) (A) (A) (A)
                 (A) (A) (A) (A) (A) (A) (A) (A) (A) (A) (A) (A)
                 (A) (A) (A) (A) (A) (A) (A) (A) (A) (A) (A)
       Virtual   (A) (A) (A) (A) (A) (A) (A) (A) (A) (A) (A) (A)
                 (A) (A) (A) (A) (A) (A) (A) (A) (A) (A) (A) (A)
                 (A) (A) (A) (A) (A) (A) (A) (A) (A) (A) (A) (A)
                 (A) (A) (A) (A) (A) (A) (A) (A) (A) (A) (A) (A)
                 (A) (A) (A) (A) (A) (A) (A) (A) (A) (A) (A) (A)
                 (A) (A) (A) (A) (A) (A) (A) (A) (A) (A) (A) (A)
                 (A) (A) (A) (A) (A) (A) (A) (A) (A) (A) (A) (A)
                 (A) (A) (A) (A) (A) (A) (A) (A) (A) (A) (A) (A)
                 (A) (A) (A) (A) (A) (A) (A) (A) (A) (A) (A) (A)
                 (A) (A) (A) (A) (A) (A) (A) (A) (A) (A) (A) (A)
                 (A) (A) (A) (A) (A) (A) (A) (A) (A) (A) (A) (A)
                 (A) (A) (A) (A) (A) (A) (A) (A) (A) (A) (A) (A)
                 (A) (A) (A) (A) (A) (A) (A) (A) (A) (A) (A) (A)
                 (A) (A) (A) (A) (A) (A) (A) (A) (A) (A) (A) (A)
                 (A) (A) (A) (A) (A) (A) (A) (A) (A) (A) (A) (A)
                 (A) (A) (A) (A) (A) (A) (A) (A) (A) (A) (A) (A)
                 (A) (A) (A) (A) (A) (A) (A) (A) (A) (A) (A) (A)
                 (A) (A) (A) (A) (A) (A) (A) (A) (A) (A) (A) (A)
                 (A) (A) (A) (A) (A) (A) (A) (A) (A) (A) (A) (A)
                 (A) (A) (A) (A) (A) (A) (A) (A) (A) (A) (A) (A)
                 (A) (A) (A) (A) (A) (A) (A) (A) (A) (A) (A) (A)
                 (A) (A) (A) (A) (A) (A) (A) (A) (A) (A) (A) (A)
                 (A) (A) (A) (A) (A) (A) (A) (A) (A) (A) (A) (A)
                 (A) (A) (A) (A) (A) (A) (A) (A) (A) (A) (A) (A)
                 (A) (A) (A) (A) (A) (A) (A) (A) (A) (A) (A) (A)
                 (A) (A) (A) (A) (A) (A) (A) (A) (A) (A) (A) (A)
                 (A) (A) (A) (A) (A) (A) (A) (A) (A) (A) (A) (A)
                 (A) (A) (A) (A) (A) (A) (A) (A) (A) (A) (A) (A)
                 (A) (A) (A) (A) (A) (A) (A) (A) (A) (A) (A) (A)
                 (A) (A) (A) (A) (A) (A) (A) (A) (A) (A) (A) (A)
                 (A) (A) (A) (A) (A) (A) (A) (A) (A) (A) (A) (A)
                 (A) (A) (A)
 The electronic state is 1-A.
 Alpha  occ. eigenvalues --  -19.21622 -19.18931 -14.43309 -14.41104 -10.37840
 Alpha  occ. eigenvalues --  -10.35703 -10.30212 -10.26819 -10.23309  -1.06808
 Alpha  occ. eigenvalues --   -1.03063  -0.94076  -0.93631  -0.75880  -0.74643
 Alpha  occ. eigenvalues --   -0.69762  -0.59870  -0.58446  -0.53011  -0.51173
 Alpha  occ. eigenvalues --   -0.50613  -0.47800  -0.47452  -0.46081  -0.44400
 Alpha  occ. eigenvalues --   -0.42507  -0.42095  -0.40851  -0.40105  -0.38396
 Alpha  occ. eigenvalues --   -0.35327  -0.30973  -0.29326  -0.27682  -0.26267
 Alpha virt. eigenvalues --   -0.02880  -0.00268   0.01323   0.03571   0.05722
 Alpha virt. eigenvalues --    0.06118   0.08612   0.08847   0.10090   0.11137
 Alpha virt. eigenvalues --    0.12761   0.13853   0.14871   0.16214   0.17209
 Alpha virt. eigenvalues --    0.18125   0.22174   0.23286   0.24884   0.25773
 Alpha virt. eigenvalues --    0.26226   0.27962   0.28994   0.30446   0.31763
 Alpha virt. eigenvalues --    0.33203   0.34044   0.34912   0.36188   0.36513
 Alpha virt. eigenvalues --    0.37554   0.38148   0.39945   0.40544   0.41278
 Alpha virt. eigenvalues --    0.41804   0.42103   0.42815   0.43729   0.43919
 Alpha virt. eigenvalues --    0.45288   0.46046   0.47071   0.48597   0.49209
 Alpha virt. eigenvalues --    0.51250   0.51875   0.53552   0.54016   0.54869
 Alpha virt. eigenvalues --    0.56198   0.57909   0.58791   0.59679   0.60843
 Alpha virt. eigenvalues --    0.64229   0.64913   0.66549   0.67932   0.70488
 Alpha virt. eigenvalues --    0.73149   0.74672   0.76528   0.77745   0.79966
 Alpha virt. eigenvalues --    0.81665   0.82009   0.83721   0.84667   0.85749
 Alpha virt. eigenvalues --    0.88499   0.89853   0.90554   0.92246   0.93738
 Alpha virt. eigenvalues --    0.94748   0.96036   0.97367   0.98825   0.99538
 Alpha virt. eigenvalues --    1.00084   1.01423   1.02845   1.04752   1.06265
 Alpha virt. eigenvalues --    1.06828   1.08389   1.09751   1.11864   1.12239
 Alpha virt. eigenvalues --    1.13596   1.14678   1.16639   1.17438   1.18351
 Alpha virt. eigenvalues --    1.20164   1.20854   1.22257   1.23731   1.24860
 Alpha virt. eigenvalues --    1.26380   1.27402   1.27616   1.28494   1.30908
 Alpha virt. eigenvalues --    1.32649   1.34570   1.35434   1.36442   1.38566
 Alpha virt. eigenvalues --    1.40285   1.40894   1.45453   1.47210   1.47980
 Alpha virt. eigenvalues --    1.49251   1.50540   1.52292   1.55955   1.56921
 Alpha virt. eigenvalues --    1.57552   1.61457   1.62423   1.65763   1.67566
 Alpha virt. eigenvalues --    1.69533   1.74041   1.75086   1.78322   1.79377
 Alpha virt. eigenvalues --    1.82731   1.85659   1.87816   1.95740   1.97065
 Alpha virt. eigenvalues --    2.00536   2.06727   2.12046   2.13557   2.15400
 Alpha virt. eigenvalues --    2.15743   2.20065   2.20941   2.22652   2.23417
 Alpha virt. eigenvalues --    2.30688   2.32732   2.35939   2.38480   2.40592
 Alpha virt. eigenvalues --    2.40813   2.42497   2.45431   2.47982   2.50900
 Alpha virt. eigenvalues --    2.52319   2.53054   2.56003   2.58072   2.58703
 Alpha virt. eigenvalues --    2.62778   2.63815   2.65248   2.67584   2.69004
 Alpha virt. eigenvalues --    2.70822   2.71979   2.72351   2.73570   2.74465
 Alpha virt. eigenvalues --    2.76272   2.76703   2.78141   2.81851   2.82449
 Alpha virt. eigenvalues --    2.83961   2.84475   2.86357   2.87390   2.88892
 Alpha virt. eigenvalues --    2.89752   2.90441   2.93861   2.94653   2.96654
 Alpha virt. eigenvalues --    2.96976   2.99138   3.01398   3.02063   3.03209
 Alpha virt. eigenvalues --    3.05631   3.05789   3.06020   3.07834   3.09714
 Alpha virt. eigenvalues --    3.10045   3.12831   3.14035   3.15002   3.15915
 Alpha virt. eigenvalues --    3.17857   3.18150   3.19952   3.23592   3.24212
 Alpha virt. eigenvalues --    3.26346   3.28608   3.29293   3.29818   3.32743
 Alpha virt. eigenvalues --    3.33546   3.34761   3.36692   3.37876   3.39462
 Alpha virt. eigenvalues --    3.40787   3.42151   3.42308   3.43958   3.45177
 Alpha virt. eigenvalues --    3.45439   3.46952   3.48408   3.49718   3.51852
 Alpha virt. eigenvalues --    3.52340   3.55577   3.57519   3.58130   3.61245
 Alpha virt. eigenvalues --    3.63089   3.64922   3.65958   3.66686   3.69915
 Alpha virt. eigenvalues --    3.72335   3.74302   3.75611   3.78651   3.79786
 Alpha virt. eigenvalues --    3.81347   3.81635   3.81921   3.83609   3.84168
 Alpha virt. eigenvalues --    3.86173   3.86401   3.88119   3.90331   3.91523
 Alpha virt. eigenvalues --    3.94922   3.95244   3.96977   3.98505   4.01571
 Alpha virt. eigenvalues --    4.02351   4.05330   4.06994   4.07330   4.09142
 Alpha virt. eigenvalues --    4.11415   4.12343   4.13880   4.15415   4.16298
 Alpha virt. eigenvalues --    4.17562   4.18668   4.22164   4.23578   4.25075
 Alpha virt. eigenvalues --    4.25775   4.26303   4.30860   4.31824   4.33954
 Alpha virt. eigenvalues --    4.34222   4.38760   4.39630   4.40870   4.44320
 Alpha virt. eigenvalues --    4.46364   4.49014   4.51459   4.53210   4.54865
 Alpha virt. eigenvalues --    4.57514   4.69176   4.71440   4.74012   4.75713
 Alpha virt. eigenvalues --    4.77138   4.79252   4.80844   4.82202   4.85304
 Alpha virt. eigenvalues --    4.86427   4.88090   4.91031   4.93610   4.94906
 Alpha virt. eigenvalues --    4.98823   5.00226   5.02842   5.03941   5.06543
 Alpha virt. eigenvalues --    5.07225   5.08606   5.09131   5.09721   5.12715
 Alpha virt. eigenvalues --    5.14363   5.14886   5.15279   5.16013   5.19355
 Alpha virt. eigenvalues --    5.19674   5.20370   5.21127   5.23016   5.26329
 Alpha virt. eigenvalues --    5.27112   5.27712   5.28609   5.29822   5.30505
 Alpha virt. eigenvalues --    5.33991   5.34743   5.39270   5.48292   5.49510
 Alpha virt. eigenvalues --    5.54096   5.57077   5.58319   5.61119   5.62035
 Alpha virt. eigenvalues --    5.66399   5.69457   5.72780   5.74932   5.78661
 Alpha virt. eigenvalues --    5.79048   5.83259   5.85631   5.87637   5.89174
 Alpha virt. eigenvalues --    5.92070   5.93527   5.93619   6.09245   6.11487
 Alpha virt. eigenvalues --    6.16562   6.19610   6.38930   6.44943   6.46526
 Alpha virt. eigenvalues --    6.53266   6.54811   6.58767   6.59431   6.62587
 Alpha virt. eigenvalues --    6.88194   6.89383   7.04030   7.04509   7.07730
 Alpha virt. eigenvalues --    7.15196   8.85751   8.98912  11.48914  11.63471
 Alpha virt. eigenvalues --   11.99637  12.36920  12.89582  13.65093  13.69568
          Condensed to atoms (all electrons):
              1          2          3          4          5          6
     1  C    5.143321   0.427152   0.407930   0.213524   0.240792  -0.020189
     2  H    0.427152   0.545902  -0.020789  -0.066017  -0.052848  -0.007859
     3  H    0.407930  -0.020789   0.511018  -0.015563  -0.016445  -0.004543
     4  C    0.213524  -0.066017  -0.015563   4.632871  -0.033482   0.007522
     5  N    0.240792  -0.052848  -0.016445  -0.033482   6.590877   0.358076
     6  H   -0.020189  -0.007859  -0.004543   0.007522   0.358076   0.566892
     7  O   -0.082522   0.000191   0.002722   0.623458   0.000749   0.000417
     8  N   -0.061339   0.002957  -0.000701   0.393052   0.001428  -0.000187
     9  H    0.002687  -0.000263   0.002647  -0.026676  -0.000373  -0.000053
    10  C    0.006469  -0.000381  -0.000323  -0.047957  -0.000209   0.000028
    11  H    0.001739  -0.000049  -0.000085  -0.011507  -0.000056   0.000000
    12  H    0.000046   0.000013  -0.000077   0.006605   0.000003  -0.000001
    13  H    0.000112   0.000020  -0.000023  -0.006790   0.000243   0.000008
    14  C   -0.038339  -0.012570   0.003291  -0.004606   0.276727   0.001162
    15  C   -0.002379   0.009094   0.000600  -0.015066  -0.117807   0.002447
    16  H   -0.001882  -0.003546  -0.000119   0.000510   0.004601   0.000021
    17  H   -0.000302   0.000481   0.000048   0.000408   0.005041  -0.000722
    18  H   -0.011497  -0.004053   0.000943  -0.000145   0.013895   0.000025
    19  O    0.004672  -0.000545  -0.000227   0.000376  -0.091711   0.002093
              7          8          9         10         11         12
     1  C   -0.082522  -0.061339   0.002687   0.006469   0.001739   0.000046
     2  H    0.000191   0.002957  -0.000263  -0.000381  -0.000049   0.000013
     3  H    0.002722  -0.000701   0.002647  -0.000323  -0.000085  -0.000077
     4  C    0.623458   0.393052  -0.026676  -0.047957  -0.011507   0.006605
     5  N    0.000749   0.001428  -0.000373  -0.000209  -0.000056   0.000003
     6  H    0.000417  -0.000187  -0.000053   0.000028   0.000000  -0.000001
     7  O    7.886442  -0.078716   0.003484  -0.007184   0.012293   0.001091
     8  N   -0.078716   6.411980   0.381057   0.257947  -0.024630  -0.020518
     9  H    0.003484   0.381057   0.579421  -0.032020   0.006984  -0.007063
    10  C   -0.007184   0.257947  -0.032020   4.805782   0.397449   0.401364
    11  H    0.012293  -0.024630   0.006984   0.397449   0.548920  -0.020483
    12  H    0.001091  -0.020518  -0.007063   0.401364  -0.020483   0.574759
    13  H    0.003017  -0.053259  -0.007721   0.416237  -0.043594  -0.033550
    14  C    0.017386  -0.000170  -0.000127  -0.000034  -0.000038   0.000001
    15  C   -0.019993  -0.000097   0.000008   0.000013  -0.000076   0.000004
    16  H    0.010173  -0.000259   0.000024   0.000151   0.000206   0.000006
    17  H    0.001444   0.000018   0.000001  -0.000002  -0.000002   0.000000
    18  H    0.001263   0.000087  -0.000002  -0.000015   0.000000  -0.000001
    19  O   -0.005304  -0.000014   0.000003   0.000005   0.000006   0.000000
             13         14         15         16         17         18
     1  C    0.000112  -0.038339  -0.002379  -0.001882  -0.000302  -0.011497
     2  H    0.000020  -0.012570   0.009094  -0.003546   0.000481  -0.004053
     3  H   -0.000023   0.003291   0.000600  -0.000119   0.000048   0.000943
     4  C   -0.006790  -0.004606  -0.015066   0.000510   0.000408  -0.000145
     5  N    0.000243   0.276727  -0.117807   0.004601   0.005041   0.013895
     6  H    0.000008   0.001162   0.002447   0.000021  -0.000722   0.000025
     7  O    0.003017   0.017386  -0.019993   0.010173   0.001444   0.001263
     8  N   -0.053259  -0.000170  -0.000097  -0.000259   0.000018   0.000087
     9  H   -0.007721  -0.000127   0.000008   0.000024   0.000001  -0.000002
    10  C    0.416237  -0.000034   0.000013   0.000151  -0.000002  -0.000015
    11  H   -0.043594  -0.000038  -0.000076   0.000206  -0.000002   0.000000
    12  H   -0.033550   0.000001   0.000004   0.000006   0.000000  -0.000001
    13  H    0.616196   0.000083   0.000024  -0.000053  -0.000001  -0.000004
    14  C    0.000083   4.592009   0.251074  -0.028129  -0.019803  -0.035048
    15  C    0.000024   0.251074   5.237038   0.386482   0.396280   0.358109
    16  H   -0.000053  -0.028129   0.386482   0.501976  -0.008903  -0.030787
    17  H   -0.000001  -0.019803   0.396280  -0.008903   0.499108  -0.015882
    18  H   -0.000004  -0.035048   0.358109  -0.030787  -0.015882   0.593665
    19  O   -0.000004   0.694121  -0.086277   0.000797   0.005289   0.004216
             19
     1  C    0.004672
     2  H   -0.000545
     3  H   -0.000227
     4  C    0.000376
     5  N   -0.091711
     6  H    0.002093
     7  O   -0.005304
     8  N   -0.000014
     9  H    0.000003
    10  C    0.000005
    11  H    0.000006
    12  H    0.000000
    13  H   -0.000004
    14  C    0.694121
    15  C   -0.086277
    16  H    0.000797
    17  H    0.005289
    18  H    0.004216
    19  O    7.816552
 Mulliken atomic charges:
              1
     1  C   -0.229993
     2  H    0.183110
     3  H    0.129694
     4  C    0.349483
     5  N   -0.179503
     6  H    0.094864
     7  O   -0.370410
     8  N   -0.208635
     9  H    0.097981
    10  C   -0.197320
    11  H    0.132922
    12  H    0.097800
    13  H    0.109058
    14  C    0.303012
    15  C   -0.399478
    16  H    0.168730
    17  H    0.137500
    18  H    0.125231
    19  O   -0.344047
 Sum of Mulliken atomic charges =   0.00000
 Mulliken charges with hydrogens summed into heavy atoms:
              1
     1  C    0.082811
     4  C    0.349483
     5  N   -0.084639
     7  O   -0.370410
     8  N   -0.110654
    10  C    0.142460
    14  C    0.303012
    15  C    0.031984
    19  O   -0.344047
 Sum of Mulliken charges with hydrogens summed into heavy atoms =   0.00000
 Electronic spatial extent (au):  <R**2>=           1389.0499
 Charge=              0.0000 electrons
 Dipole moment (field-independent basis, Debye):
    X=             -3.2142    Y=              4.6761    Z=              1.9343  Tot=              5.9949
 Quadrupole moment (field-independent basis, Debye-Ang):
   XX=            -51.3290   YY=            -50.9914   ZZ=            -57.3315
   XY=              4.6597   XZ=              8.6812   YZ=             -2.8396
 Traceless Quadrupole moment (field-independent basis, Debye-Ang):
   XX=              1.8883   YY=              2.2259   ZZ=             -4.1142
   XY=              4.6597   XZ=              8.6812   YZ=             -2.8396
 Octapole moment (field-independent basis, Debye-Ang**2):
  XXX=            -33.9268  YYY=             10.8173  ZZZ=              0.7771  XYY=             -2.6074
  XXY=             14.3085  XXZ=              2.9349  XZZ=             -1.6140  YZZ=             -1.4147
  YYZ=             -1.0726  XYZ=             -4.5580
 Hexadecapole moment (field-independent basis, Debye-Ang**3):
 XXXX=          -1214.0344 YYYY=           -280.2865 ZZZZ=           -229.3140 XXXY=             32.5254
 XXXZ=             44.0263 YYYX=              6.2046 YYYZ=             -8.7578 ZZZX=              5.6464
 ZZZY=              0.8852 XXYY=           -243.8077 XXZZ=           -263.6349 YYZZ=            -85.8733
 XXYZ=            -22.4343 YYXZ=              0.4675 ZZXY=              3.3803
 N-N= 4.681828986512D+02 E-N=-2.002240851264D+03  KE= 4.527466768295D+02
 No NMR shielding tensors so no spin-rotation constants.
 Leave Link  601 at Fri Feb 22 07:46:41 2013, MaxMem= 2147483648 cpu:       5.0
 (Enter /home/ztw1e12/g09/l701.exe)
 Compute integral first derivatives.
 ... and contract with generalized density number  0.
 Leave Link  701 at Fri Feb 22 07:46:42 2013, MaxMem= 2147483648 cpu:       4.5
 (Enter /home/ztw1e12/g09/l702.exe)
 L702 exits ... SP integral derivatives will be done elsewhere.
 Leave Link  702 at Fri Feb 22 07:46:42 2013, MaxMem= 2147483648 cpu:       0.2
 (Enter /home/ztw1e12/g09/l703.exe)
 Compute integral first derivatives, UseDBF=F ICtDFT=           0.
 Integral derivatives from FoFDir, PRISM(SPDF).
 Calling FoFJK, ICntrl=      2127 FMM=F ISym2X=0 I1Cent= 0 IOpClX= 0 NMat=1 NMatS=1 NMatT=0.
 FoFCou: FMM=F IPFlag=           0 FMFlag=      100000 FMFlg1=         800
         NFxFlg=           0 DoJE=F BraDBF=F KetDBF=F FulRan=T
         Omega=  0.000000  0.000000  1.000000  0.000000  0.000000 ICntrl=    2127 IOpCl=  0
         NMat0=    1 NMatS0=    1 NMatT0=    0 NMatD0=    1 NMtDS0=    0 NMtDT0=    0
         I1Cent=           0 NGrid=           0.
 Symmetry not used in FoFCou.
 Leave Link  703 at Fri Feb 22 07:47:46 2013, MaxMem= 2147483648 cpu:     767.7
 (Enter /home/ztw1e12/g09/l716.exe)
 Dipole        =-1.26456372D+00 1.83973002D+00 7.60993976D-01
 ***** Axes restored to original set *****
 -------------------------------------------------------------------
 Center     Atomic                   Forces (Hartrees/Bohr)
 Number     Number              X              Y              Z
 -------------------------------------------------------------------
      1        6           0.016958886    0.004476993   -0.015840225
      2        1          -0.007698719    0.008761035    0.016252165
      3        1           0.002207753   -0.010764394    0.008824648
      4        6           0.031269299    0.041373853   -0.029877234
      5        7           0.006954889    0.042055285   -0.000990764
      6        1          -0.006373486   -0.010103250   -0.003108195
      7        8          -0.000458143   -0.045764875    0.069199685
      8        7          -0.031976284   -0.008478967   -0.056691290
      9        1          -0.003955622   -0.008050586    0.009900011
     10        6          -0.012449969    0.000658360    0.010896499
     11        1          -0.000699253    0.008608485   -0.005116105
     12        1           0.006901416    0.002066738    0.010101465
     13        1           0.008344731   -0.006658598   -0.010987778
     14        6           0.015603520    0.003593909   -0.084864629
     15        6           0.006845922   -0.027403624   -0.010808914
     16        1           0.004846338    0.007527280    0.001844987
     17        1          -0.005702808    0.002324298   -0.009794174
     18        1          -0.009981488    0.000657076    0.011400837
     19        8          -0.020636983   -0.004879018    0.089659012
 -------------------------------------------------------------------
 Cartesian Forces:  Max     0.089659012 RMS     0.025184369
 Leave Link  716 at Fri Feb 22 07:47:46 2013, MaxMem= 2147483648 cpu:       0.4
 (Enter /home/ztw1e12/g09/l103.exe)

 GradGradGradGradGradGradGradGradGradGradGradGradGradGradGradGradGradGrad
 Berny optimization.
 Internal  Forces:  Max     0.091663199 RMS     0.018914950
 Search for a local minimum.
 Step number   1 out of a maximum of   90
 All quantities printed in internal units (Hartrees-Bohrs-Radians)
 RMS Force = .18915D-01 SwitMx=.10000D-02 MixMth= 1
 Mixed Optimization -- RFO/linear search
 Second derivative matrix not updated -- first step.
     Eigenvalues ---    0.00237   0.00237   0.00448   0.00448   0.00766
     Eigenvalues ---    0.00766   0.00766   0.00766   0.03399   0.03399
     Eigenvalues ---    0.05269   0.06518   0.07243   0.07243   0.07537
     Eigenvalues ---    0.07537   0.09364   0.11287   0.11287   0.12902
     Eigenvalues ---    0.16000   0.16000   0.16000   0.16000   0.16000
     Eigenvalues ---    0.16000   0.22022   0.23464   0.23464   0.25000
     Eigenvalues ---    0.25000   0.25000   0.25000   0.28519   0.28519
     Eigenvalues ---    0.35740   0.35740   0.35740   0.35740   0.37230
     Eigenvalues ---    0.37230   0.37230   0.37230   0.37230   0.37230
     Eigenvalues ---    0.37230   0.37230   0.47688   0.47688   0.80209
     Eigenvalues ---    0.802091000.000001000.000001000.000001000.00000
     Eigenvalues --- 1000.000001000.000001000.000001000.000001000.00000
     Eigenvalues --- 1000.000001000.000001000.000001000.000001000.00000
     Eigenvalues --- 1000.000001000.000001000.000001000.000001000.00000
     Eigenvalues --- 1000.000001000.000001000.000001000.000001000.00000
     Eigenvalues --- 1000.000001000.000001000.000001000.000001000.00000
 RFO step:  Lambda=-6.77053296D-02 EMin= 2.36824121D-03
 Linear search not attempted -- first point.
 Maximum step size (   0.300) exceeded in Quadratic search.
    -- Step size scaled by   0.547
 Iteration  1 RMS(Cart)=  0.19613180 RMS(Int)=  0.00672746
 Iteration  2 RMS(Cart)=  0.01305059 RMS(Int)=  0.00041791
 Iteration  3 RMS(Cart)=  0.00006171 RMS(Int)=  0.00041643
 Iteration  4 RMS(Cart)=  0.00000002 RMS(Int)=  0.00041643
 Variable       Old X    -DE/DX   Delta X   Delta X   Delta X     New X
                                 (Linear)    (Quad)   (Total)
    R1        2.02201   0.01647   0.00000   0.02049   0.02049   2.04250
    R2        2.02201   0.01395   0.00000   0.01735   0.01735   2.03936
    R3        2.91018  -0.01298   0.00000  -0.02012  -0.02012   2.89006
    R4        2.77790   0.00322   0.00000   0.00415   0.00415   2.78205
    R5        2.37803  -0.08260   0.00000  -0.05198  -0.05198   2.32605
    R6        2.77790  -0.05484   0.00000  -0.07061  -0.07061   2.70729
    R7        1.88973   0.01129   0.00000   0.01135   0.01135   1.90107
    R8        2.77790  -0.00972   0.00000  -0.01251  -0.01251   2.76538
    R9        1.88973   0.01139   0.00000   0.01144   0.01144   1.90117
   R10        2.77790   0.00149   0.00000   0.00192   0.00192   2.77982
   R11        2.02201   0.01003   0.00000   0.01248   0.01248   2.03448
   R12        2.02201   0.01233   0.00000   0.01533   0.01533   2.03734
   R13        2.02201   0.01446   0.00000   0.01799   0.01799   2.03999
   R14        2.91018  -0.01451   0.00000  -0.02251  -0.02251   2.88767
   R15        2.37803  -0.09166   0.00000  -0.05768  -0.05768   2.32035
   R16        2.02201   0.00892   0.00000   0.01110   0.01110   2.03311
   R17        2.02201   0.01105   0.00000   0.01374   0.01374   2.03575
   R18        2.02201   0.01414   0.00000   0.01759   0.01759   2.03959
    A1        1.91063  -0.00131   0.00000  -0.01247  -0.01243   1.89820
    A2        1.91063  -0.00128   0.00000   0.00757   0.00651   1.91715
    A3        1.91063   0.00455   0.00000   0.02788   0.02724   1.93788
    A4        1.91063  -0.01089   0.00000  -0.03597  -0.03586   1.87478
    A5        1.91063  -0.00527   0.00000  -0.01694  -0.01660   1.89403
    A6        1.91063   0.01421   0.00000   0.02993   0.02946   1.94009
    A7        2.09440   0.01924   0.00000   0.03314   0.03314   2.12754
    A8        2.09440  -0.02260   0.00000  -0.03893  -0.03893   2.05546
    A9        2.09440   0.00336   0.00000   0.00579   0.00579   2.10019
   A10        1.91063  -0.00874   0.00000  -0.00134  -0.00055   1.91008
   A11        1.91063   0.06288   0.00000   0.11545   0.11528   2.02591
   A12        1.91063  -0.02647   0.00000  -0.05342  -0.05458   1.85605
   A13        1.91063  -0.00629   0.00000  -0.00399  -0.00491   1.90573
   A14        1.91063   0.01961   0.00000   0.03996   0.03950   1.95013
   A15        1.91063   0.00186   0.00000   0.01923   0.01882   1.92945
   A16        1.91063  -0.00088   0.00000  -0.00299  -0.00301   1.90763
   A17        1.91063  -0.00260   0.00000  -0.00643  -0.00644   1.90419
   A18        1.91063   0.00771   0.00000   0.01960   0.01959   1.93022
   A19        1.91063  -0.00013   0.00000  -0.00243  -0.00247   1.90817
   A20        1.91063  -0.00309   0.00000  -0.00705  -0.00706   1.90358
   A21        1.91063  -0.00102   0.00000  -0.00071  -0.00071   1.90992
   A22        2.09440   0.01427   0.00000   0.02458   0.02383   2.11822
   A23        2.09440  -0.01245   0.00000  -0.02145  -0.02218   2.07221
   A24        2.09440  -0.00182   0.00000  -0.00313  -0.00390   2.09049
   A25        1.91063   0.00210   0.00000   0.00540   0.00529   1.91592
   A26        1.91063  -0.00746   0.00000  -0.01983  -0.01979   1.89084
   A27        1.91063   0.00891   0.00000   0.02296   0.02292   1.93355
   A28        1.91063   0.00011   0.00000  -0.00282  -0.00285   1.90779
   A29        1.91063  -0.00235   0.00000  -0.00186  -0.00203   1.90860
   A30        1.91063  -0.00131   0.00000  -0.00385  -0.00375   1.90688
    D1       -1.57080  -0.00908   0.00000  -0.04214  -0.04218  -1.61297
    D2        1.57080  -0.00947   0.00000  -0.04509  -0.04514   1.52565
    D3        2.61799  -0.00001   0.00000  -0.00947  -0.00961   2.60839
    D4       -0.52360  -0.00040   0.00000  -0.01242  -0.01257  -0.53617
    D5        0.52360   0.00442   0.00000   0.01498   0.01518   0.53878
    D6       -2.61799   0.00403   0.00000   0.01203   0.01221  -2.60578
    D7       -1.04720  -0.00422   0.00000  -0.04148  -0.04171  -1.08891
    D8        1.04720  -0.00349   0.00000  -0.03703  -0.03599   1.01121
    D9        1.04720  -0.00627   0.00000  -0.05006  -0.05074   0.99646
   D10       -3.14159  -0.00554   0.00000  -0.04560  -0.04501   3.09658
   D11        3.14159  -0.01414   0.00000  -0.08615  -0.08714   3.05445
   D12       -1.04720  -0.01341   0.00000  -0.08170  -0.08142  -1.12862
   D13        0.52360  -0.00314   0.00000  -0.00764  -0.00761   0.51599
   D14        2.61799   0.00730   0.00000   0.03794   0.03787   2.65587
   D15       -2.61799  -0.00353   0.00000  -0.01059  -0.01052  -2.62852
   D16       -0.52360   0.00691   0.00000   0.03499   0.03496  -0.48864
   D17       -0.52360  -0.01456   0.00000  -0.08333  -0.08221  -0.60581
   D18        2.61799  -0.00495   0.00000  -0.01049  -0.00984   2.60815
   D19        1.57080  -0.00296   0.00000  -0.04698  -0.04763   1.52317
   D20       -1.57080   0.00664   0.00000   0.02585   0.02474  -1.54606
   D21        1.04720  -0.00173   0.00000  -0.01153  -0.01179   1.03540
   D22        3.14159  -0.00401   0.00000  -0.02027  -0.02052   3.12108
   D23       -1.04720  -0.00213   0.00000  -0.01307  -0.01333  -1.06053
   D24        3.14159   0.00372   0.00000   0.01983   0.02008  -3.12151
   D25       -1.04720   0.00143   0.00000   0.01109   0.01135  -1.03584
   D26        1.04720   0.00332   0.00000   0.01829   0.01854   1.06574
   D27        1.57080   0.00692   0.00000   0.04380   0.04399   1.61479
   D28       -2.61799   0.00377   0.00000   0.03151   0.03170  -2.58629
   D29       -0.52360   0.00305   0.00000   0.02870   0.02873  -0.49487
   D30       -1.57080  -0.00269   0.00000  -0.02904  -0.02912  -1.59992
   D31        0.52360  -0.00584   0.00000  -0.04133  -0.04141   0.48219
   D32        2.61799  -0.00655   0.00000  -0.04413  -0.04438   2.57361
         Item               Value     Threshold  Converged?
 Maximum Force            0.091663     0.000015     NO 
 RMS     Force            0.018915     0.000010     NO 
 Maximum Displacement     0.651922     0.000060     NO 
 RMS     Displacement     0.196052     0.000040     NO 
 Predicted change in Energy=-2.996230D-02
 GradGradGradGradGradGradGradGradGradGradGradGradGradGradGradGradGradGrad

 Leave Link  103 at Fri Feb 22 07:47:47 2013, MaxMem= 2147483648 cpu:       4.7
 (Enter /home/ztw1e12/g09/l202.exe)
                          Input orientation:                          
 ---------------------------------------------------------------------
 Center     Atomic      Atomic             Coordinates (Angstroms)
 Number     Number       Type             X           Y           Z
 ---------------------------------------------------------------------
      1          6           0       -2.722190    0.765982    1.606786
      2          1           0       -3.555178    1.226178    2.119206
      3          1           0       -2.386719   -0.082936    2.182488
      4          6           0       -1.555874    1.751636    1.522473
      5          7           0       -3.118922    0.296470    0.269054
      6          1           0       -3.829993   -0.409430    0.359222
      7          8           0       -1.401079    2.494800    0.553532
      8          7           0       -0.635005    1.791464    2.619221
      9          1           0       -0.592803    0.882694    3.048761
     10          6           0        0.704454    2.222629    2.190457
     11          1           0        0.639180    3.204056    1.752718
     12          1           0        1.355562    2.257413    3.049049
     13          1           0        1.108534    1.537237    1.460856
     14          6           0       -3.659405    1.312286   -0.635086
     15          6           0       -4.509967    2.469705   -0.113562
     16          1           0       -3.881747    3.317726    0.095496
     17          1           0       -5.224682    2.734911   -0.874723
     18          1           0       -5.035947    2.184123    0.784598
     19          8           0       -3.483375    1.180921   -1.843160
 ---------------------------------------------------------------------
                    Distance matrix (angstroms):
                    1          2          3          4          5
     1  C    0.000000
     2  H    1.080844   0.000000
     3  H    1.079183   1.755870   0.000000
     4  C    1.529351   2.151607   2.119334   0.000000
     5  N    1.472197   2.116066   2.083578   2.476224   0.000000
     6  H    2.040891   2.418322   2.348177   3.345890   1.006005
     7  O    2.417331   2.949726   3.204639   1.230895   2.804384
     8  N    2.536333   3.016120   2.602425   1.432635   3.732042
     9  H    2.574335   3.123735   2.213822   2.003027   3.801540
    10  C    3.768870   4.375210   3.856300   2.403564   4.692556
    11  H    4.155034   4.651769   4.488327   2.642120   4.977815
    12  H    4.575211   5.103276   4.498092   3.326064   5.620914
    13  H    3.910317   4.720211   3.919504   2.673730   4.564130
    14  C    2.490544   2.757608   3.391917   3.045149   1.463378
    15  C    3.009720   2.728229   4.036831   3.452376   2.608515
    16  H    3.184331   2.928587   4.260886   3.146202   3.120899
    17  H    4.036958   3.745281   5.033968   4.491496   3.418837
    18  H    2.835593   2.211677   3.756603   3.583632   2.739344
    19  O    3.557204   3.963274   4.359567   3.920263   2.318734
                    6          7          8          9         10
     6  H    0.000000
     7  O    3.791034   0.000000
     8  N    4.489932   2.312709   0.000000
     9  H    4.402568   3.078695   1.006056   0.000000
    10  C    5.553591   2.680833   1.471017   2.053044   0.000000
    11  H    5.913765   2.470576   2.090404   2.930227   1.076603
    12  H    6.421620   3.725993   2.089071   2.384530   1.078115
    13  H    5.421454   2.835193   2.108641   2.417523   1.079518
    14  C    1.995509   2.812684   4.468459   4.812414   5.277849
    15  C    2.995882   3.179754   4.789932   5.278547   5.706114
    16  H    3.736833   2.653436   4.386343   5.046614   5.159587
    17  H    3.654402   4.088705   5.844902   6.346553   6.694208
    18  H    2.891676   3.655432   4.784174   5.153803   5.910172
    19  O    2.738584   3.436040   5.329055   5.689924   5.907041
                   11         12         13         14         15
    11  H    0.000000
    12  H    1.757785   0.000000
    13  H    1.756064   1.761258   0.000000
    14  C    5.268608   6.294125   5.213139   0.000000
    15  C    5.525938   6.667204   5.908963   1.528091   0.000000
    16  H    4.816439   6.105501   5.471495   2.145920   1.075874
    17  H    6.442703   7.676171   6.855580   2.128703   1.077273
    18  H    5.846759   6.781187   6.215339   2.161127   1.079306
    19  O    5.832570   6.964758   5.668255   1.227878   2.388800
                   16         17         18         19
    16  H    0.000000
    17  H    1.756267   0.000000
    18  H    1.758435   1.758503   0.000000
    19  O    2.912563   2.526836   3.212787   0.000000
 Stoichiometry    C5H10N2O2
 Framework group  C1[X(C5H10N2O2)]
 Deg. of freedom    51
 Full point group                 C1      NOp   1
 Largest Abelian subgroup         C1      NOp   1
 Largest concise Abelian subgroup C1      NOp   1
                         Standard orientation:                         
 ---------------------------------------------------------------------
 Center     Atomic      Atomic             Coordinates (Angstroms)
 Number     Number       Type             X           Y           Z
 ---------------------------------------------------------------------
      1          6           0       -0.059153    1.293208    0.101560
      2          1           0        0.239418    1.584771    1.098591
      3          1           0       -0.578203    2.118785   -0.360657
      4          6           0       -1.038001    0.120433    0.174834
      5          7           0        1.112616    0.956614   -0.723682
      6          1           0        1.697539    1.769186   -0.821866
      7          8           0       -0.657532   -1.048831    0.118537
      8          7           0       -2.431374    0.421837    0.316649
      9          1           0       -2.623997    1.308086   -0.118791
     10          6           0       -3.278408   -0.632608   -0.261773
     11          1           0       -3.070587   -1.566624    0.231682
     12          1           0       -4.314464   -0.373663   -0.113895
     13          1           0       -3.082404   -0.740456   -1.317855
     14          6           0        1.973398   -0.111184   -0.213451
     15          6           0        2.203818   -0.299231    1.285417
     16          1           0        1.488291   -0.999903    1.678591
     17          1           0        3.198434   -0.687220    1.429366
     18          1           0        2.109067    0.640190    1.808306
     19          8           0        2.577319   -0.816921   -1.016508
 ---------------------------------------------------------------------
 Rotational constants (GHZ):      3.4748028      0.8649368      0.8252514
 Leave Link  202 at Fri Feb 22 07:47:47 2013, MaxMem= 2147483648 cpu:       0.5
 (Enter /home/ztw1e12/g09/l301.exe)
 Standard basis: CC-pVTZ (5D, 7F)
 Ernie: Thresh=  0.10000D-02 Tol=  0.10000D-05 Strict=F.
 Ernie:  27 primitive shells out of 314 were deleted.
 There are   410 symmetry adapted basis functions of A   symmetry.
 Integral buffers will be    131072 words long.
 Raffenetti 2 integral format.
 Two-electron integral symmetry is turned on.
   410 basis functions,   638 primitive gaussians,   465 cartesian basis functions
    35 alpha electrons       35 beta electrons
       nuclear repulsion energy       461.5929008955 Hartrees.
 IExCor= 4235 DFT=T Ex+Corr=M06 ExCW=0 ScaHFX=  0.270000
 ScaDFX=  1.000000  1.000000  1.000000  1.000000 ScalE2=  1.000000  1.000000
 IRadAn=      5 IRanWt=     -1 IRanGd=            0 ICorTp=0
 NAtoms=   19 NActive=   19 NUniq=   19 SFac= 7.50D-01 NAtFMM=   80 NAOKFM=F Big=F
 Leave Link  301 at Fri Feb 22 07:47:47 2013, MaxMem= 2147483648 cpu:       0.7
 (Enter /home/ztw1e12/g09/l302.exe)
 NPDir=0 NMtPBC=     1 NCelOv=     1 NCel=       1 NClECP=     1 NCelD=      1
         NCelK=      1 NCelE2=     1 NClLst=     1 CellRange=     0.0.
 One-electron integrals computed using PRISM.
 NBasis=   410 RedAO= T  NBF=   410
 NBsUse=   410 1.00D-06 NBFU=   410
 Precomputing XC quadrature grid using
 IXCGrd= 2 IRadAn=           5 IRanWt=          -1 IRanGd=           0 AccXCQ= 1.00D-10.
 NRdTot=    1592 NPtTot=      427888 NUsed=      439292 NTot=      439324
 NSgBfM=   464   464   464   464   464 NAtAll=    19    19.
 Leave Link  302 at Fri Feb 22 07:47:47 2013, MaxMem= 2147483648 cpu:       7.8
 (Enter /home/ztw1e12/g09/l303.exe)
 DipDrv:  MaxL=1.
 Leave Link  303 at Fri Feb 22 07:47:48 2013, MaxMem= 2147483648 cpu:       2.1
 (Enter /home/ztw1e12/g09/l401.exe)
 Initial guess read from the read-write file.
 B after Tr=     0.000000    0.000000    0.000000
         Rot=    1.000000    0.000000    0.000000    0.000000 Ang=   0.00 deg.
 Guess basis will be translated and rotated to current coordinates.
 Initial guess orbital symmetries:
       Occupied  (A) (A) (A) (A) (A) (A) (A) (A) (A) (A) (A) (A)
                 (A) (A) (A) (A) (A) (A) (A) (A) (A) (A) (A) (A)
                 (A) (A) (A) (A) (A) (A) (A) (A) (A) (A) (A)
       Virtual   (A) (A) (A) (A) (A) (A) (A) (A) (A) (A) (A) (A)
                 (A) (A) (A) (A) (A) (A) (A) (A) (A) (A) (A) (A)
                 (A) (A) (A) (A) (A) (A) (A) (A) (A) (A) (A) (A)
                 (A) (A) (A) (A) (A) (A) (A) (A) (A) (A) (A) (A)
                 (A) (A) (A) (A) (A) (A) (A) (A) (A) (A) (A) (A)
                 (A) (A) (A) (A) (A) (A) (A) (A) (A) (A) (A) (A)
                 (A) (A) (A) (A) (A) (A) (A) (A) (A) (A) (A) (A)
                 (A) (A) (A) (A) (A) (A) (A) (A) (A) (A) (A) (A)
                 (A) (A) (A) (A) (A) (A) (A) (A) (A) (A) (A) (A)
                 (A) (A) (A) (A) (A) (A) (A) (A) (A) (A) (A) (A)
                 (A) (A) (A) (A) (A) (A) (A) (A) (A) (A) (A) (A)
                 (A) (A) (A) (A) (A) (A) (A) (A) (A) (A) (A) (A)
                 (A) (A) (A) (A) (A) (A) (A) (A) (A) (A) (A) (A)
                 (A) (A) (A) (A) (A) (A) (A) (A) (A) (A) (A) (A)
                 (A) (A) (A) (A) (A) (A) (A) (A) (A) (A) (A) (A)
                 (A) (A) (A) (A) (A) (A) (A) (A) (A) (A) (A) (A)
                 (A) (A) (A) (A) (A) (A) (A) (A) (A) (A) (A) (A)
                 (A) (A) (A) (A) (A) (A) (A) (A) (A) (A) (A) (A)
                 (A) (A) (A) (A) (A) (A) (A) (A) (A) (A) (A) (A)
                 (A) (A) (A) (A) (A) (A) (A) (A) (A) (A) (A) (A)
                 (A) (A) (A) (A) (A) (A) (A) (A) (A) (A) (A) (A)
                 (A) (A) (A) (A) (A) (A) (A) (A) (A) (A) (A) (A)
                 (A) (A) (A) (A) (A) (A) (A) (A) (A) (A) (A) (A)
                 (A) (A) (A) (A) (A) (A) (A) (A) (A) (A) (A) (A)
                 (A) (A) (A) (A) (A) (A) (A) (A) (A) (A) (A) (A)
                 (A) (A) (A) (A) (A) (A) (A) (A) (A) (A) (A) (A)
                 (A) (A) (A) (A) (A) (A) (A) (A) (A) (A) (A) (A)
                 (A) (A) (A) (A) (A) (A) (A) (A) (A) (A) (A) (A)
                 (A) (A) (A) (A) (A) (A) (A) (A) (A) (A) (A) (A)
                 (A) (A) (A) (A) (A) (A) (A) (A) (A) (A) (A) (A)
                 (A) (A) (A) (A) (A) (A) (A) (A) (A) (A) (A) (A)
                 (A) (A) (A)
 The electronic state of the initial guess is 1-A.
 Generating alternative initial guess.
 Harris functional with IExCor= 1009 diagonalized for initial guess.
 ExpMin= 1.03D-01 ExpMax= 1.53D+04 ExpMxC= 5.22D+02 IAcc=3 IRadAn=         5 AccDes= 0.00D+00
 HarFok:  IExCor= 1009 AccDes= 0.00D+00 IRadAn=         5 IDoV= 1
 ScaDFX=  1.000000  1.000000  1.000000  1.000000
 FoFCou: FMM=F IPFlag=           0 FMFlag=      100000 FMFlg1=           0
         NFxFlg=           0 DoJE=T BraDBF=F KetDBF=T FulRan=T
         Omega=  0.000000  0.000000  1.000000  0.000000  0.000000 ICntrl=     500 IOpCl=  0
         NMat0=    1 NMatS0=    1 NMatT0=    0 NMatD0=    1 NMtDS0=    0 NMtDT0=    0
         I1Cent=           4 NGrid=           0.
 Petite list used in FoFCou.
 Harris En= -456.353745401799    
 Leave Link  401 at Fri Feb 22 07:47:52 2013, MaxMem= 2147483648 cpu:      54.3
 (Enter /home/ztw1e12/g09/l502.exe)
 Closed shell SCF:
 Requested convergence on RMS density matrix=1.00D-08 within 128 cycles.
 Requested convergence on MAX density matrix=1.00D-06.
 Requested convergence on             energy=1.00D-06.
 No special actions if energy rises.
 Using DIIS extrapolation, IDIIS=  1040.
 Integral symmetry usage will be decided dynamically.
       439108 words used for storage of precomputed grid.
 IEnd=     1114897 IEndB=     1114897 NGot=  2147483648 MDV=  2146602082
 LenX=  2146602082 LenY=  2146385392
 Fock matrices will be formed incrementally for  20 cycles.
 Integral accuracy reduced to 1.0D-05 until final iterations.

 Cycle   1  Pass 0  IDiag  1:
 FoFCou: FMM=F IPFlag=           0 FMFlag=      100000 FMFlg1=           0
         NFxFlg=           0 DoJE=F BraDBF=F KetDBF=F FulRan=T
         Omega=  0.000000  0.000000  1.000000  0.000000  0.000000 ICntrl=       0 IOpCl=  0
         NMat0=    1 NMatS0=    1 NMatT0=    0 NMatD0=    1 NMtDS0=    0 NMtDT0=    0
         I1Cent=           0 NGrid=           0.
 Symmetry not used in FoFCou.
 E= -456.326999319952    
 DIIS: error= 5.13D-03 at cycle   1 NSaved=   1.
 NSaved= 1 IEnMin= 1 EnMin= -456.326999319952     IErMin= 1 ErrMin= 5.13D-03
 ErrMax= 5.13D-03 EMaxC= 1.00D-01 BMatC= 2.58D-02 BMatP= 2.58D-02
 IDIUse=3 WtCom= 9.49D-01 WtEn= 5.13D-02
 Coeff-Com:  0.100D+01
 Coeff-En:   0.100D+01
 Coeff:      0.100D+01
 Gap=     0.354 Goal=   None    Shift=    0.000
 GapD=    0.354 DampG=1.000 DampE=1.000 DampFc=1.0000 IDamp=-1.
 RMSDP=4.65D-04 MaxDP=1.37D-02              OVMax= 4.28D-02

 Cycle   2  Pass 0  IDiag  1:
 RMSU=  3.28D-04    CP:  9.96D-01
 E= -456.358967832820     Delta-E=       -0.031968512869 Rises=F Damp=F
 DIIS: error= 8.65D-04 at cycle   2 NSaved=   2.
 NSaved= 2 IEnMin= 2 EnMin= -456.358967832820     IErMin= 2 ErrMin= 8.65D-04
 ErrMax= 8.65D-04 EMaxC= 1.00D-01 BMatC= 8.89D-04 BMatP= 2.58D-02
 IDIUse=3 WtCom= 9.91D-01 WtEn= 8.65D-03
 Coeff-Com: -0.134D-01 0.101D+01
 Coeff-En:   0.000D+00 0.100D+01
 Coeff:     -0.133D-01 0.101D+01
 Gap=     0.259 Goal=   None    Shift=    0.000
 RMSDP=1.25D-04 MaxDP=6.24D-03 DE=-3.20D-02 OVMax= 1.88D-02

 Cycle   3  Pass 0  IDiag  1:
 RMSU=  8.67D-05    CP:  9.96D-01  1.05D+00
 E= -456.358943829267     Delta-E=        0.000024003553 Rises=F Damp=F
 DIIS: error= 1.17D-03 at cycle   3 NSaved=   3.
 NSaved= 3 IEnMin= 2 EnMin= -456.358967832820     IErMin= 2 ErrMin= 8.65D-04
 ErrMax= 1.17D-03 EMaxC= 1.00D-01 BMatC= 1.46D-03 BMatP= 8.89D-04
[...]
     12 -0.746312D-01 -0.404490D+00 -0.589502D+00  0.177882D+01  0.152126D+03
     13 -0.172812D-01 -0.368272D+00 -0.545145D+00  0.189826D+01  0.152602D+03
     14 -0.460652D+01 -0.125247D+00  0.374640D-01 -0.518550D-01 -0.344468D-01
     15  0.386158D+01 -0.146212D+01  0.280540D-01 -0.144226D-01  0.874743D-05
     16 -0.945756D+00 -0.400588D+00  0.477208D-01 -0.921165D-01 -0.156488D-01
     17  0.117139D+01 -0.242542D+00  0.551370D-02 -0.125072D+00 -0.258215D-01
     18 -0.630040D+00  0.183510D-01  0.252131D-02 -0.216695D-01 -0.259445D-01
     19  0.117287D+01 -0.129733D-01 -0.678554D-01  0.497828D-01 -0.227266D-01
               11            12            13            14            15 
     11  0.000000D+00
     12 -0.232739D+02  0.000000D+00
     13 -0.233431D+02 -0.205121D+02  0.000000D+00
     14 -0.289854D-02 -0.151769D-01 -0.207683D-01  0.000000D+00
     15 -0.933506D-02  0.119153D-01  0.303023D-02  0.526712D+02  0.000000D+00
     16  0.286866D-01  0.117454D-02 -0.759280D-01 -0.889508D+01  0.139907D+03
     17 -0.586294D-01 -0.513725D-01 -0.805330D-01 -0.900587D+01  0.150330D+03
     18 -0.531339D-01 -0.291084D-01 -0.671683D-01 -0.774203D+01  0.132522D+03
     19  0.148687D-02  0.311356D-01  0.142802D-01  0.192769D+02 -0.329759D+01
               16            17            18            19 
     16  0.000000D+00
     17 -0.253707D+02  0.000000D+00
     18 -0.270497D+02 -0.240119D+02  0.000000D+00
     19 -0.234622D+01 -0.157333D+01 -0.259005D+01  0.000000D+00
 End of Minotr Frequency-dependent properties file   721 does not exist.
 End of Minotr Frequency-dependent properties file   722 does not exist.
 Leave Link 1002 at Fri Feb 22 17:15:33 2013, MaxMem= 2147483648 cpu:   93620.1
 (Enter /home/ztw1e12/g09/l601.exe)
 Copying SCF densities to generalized density rwf, IOpCl= 0 IROHF=0.

 **********************************************************************

            Population analysis using the SCF density.

 **********************************************************************

 Orbital symmetries:
       Occupied  (A) (A) (A) (A) (A) (A) (A) (A) (A) (A) (A) (A)
                 (A) (A) (A) (A) (A) (A) (A) (A) (A) (A) (A) (A)
                 (A) (A) (A) (A) (A) (A) (A) (A) (A) (A) (A)
       Virtual   (A) (A) (A) (A) (A) (A) (A) (A) (A) (A) (A) (A)
                 (A) (A) (A) (A) (A) (A) (A) (A) (A) (A) (A) (A)
                 (A) (A) (A) (A) (A) (A) (A) (A) (A) (A) (A) (A)
                 (A) (A) (A) (A) (A) (A) (A) (A) (A) (A) (A) (A)
                 (A) (A) (A) (A) (A) (A) (A) (A) (A) (A) (A) (A)
                 (A) (A) (A) (A) (A) (A) (A) (A) (A) (A) (A) (A)
                 (A) (A) (A) (A) (A) (A) (A) (A) (A) (A) (A) (A)
                 (A) (A) (A) (A) (A) (A) (A) (A) (A) (A) (A) (A)
                 (A) (A) (A) (A) (A) (A) (A) (A) (A) (A) (A) (A)
                 (A) (A) (A) (A) (A) (A) (A) (A) (A) (A) (A) (A)
                 (A) (A) (A) (A) (A) (A) (A) (A) (A) (A) (A) (A)
                 (A) (A) (A) (A) (A) (A) (A) (A) (A) (A) (A) (A)
                 (A) (A) (A) (A) (A) (A) (A) (A) (A) (A) (A) (A)
                 (A) (A) (A) (A) (A) (A) (A) (A) (A) (A) (A) (A)
                 (A) (A) (A) (A) (A) (A) (A) (A) (A) (A) (A) (A)
                 (A) (A) (A) (A) (A) (A) (A) (A) (A) (A) (A) (A)
                 (A) (A) (A) (A) (A) (A) (A) (A) (A) (A) (A) (A)
                 (A) (A) (A) (A) (A) (A) (A) (A) (A) (A) (A) (A)
                 (A) (A) (A) (A) (A) (A) (A) (A) (A) (A) (A) (A)
                 (A) (A) (A) (A) (A) (A) (A) (A) (A) (A) (A) (A)
                 (A) (A) (A) (A) (A) (A) (A) (A) (A) (A) (A) (A)
                 (A) (A) (A) (A) (A) (A) (A) (A) (A) (A) (A) (A)
                 (A) (A) (A) (A) (A) (A) (A) (A) (A) (A) (A) (A)
                 (A) (A) (A) (A) (A) (A) (A) (A) (A) (A) (A) (A)
                 (A) (A) (A) (A) (A) (A) (A) (A) (A) (A) (A) (A)
                 (A) (A) (A) (A) (A) (A) (A) (A) (A) (A) (A) (A)
                 (A) (A) (A) (A) (A) (A) (A) (A) (A) (A) (A) (A)
                 (A) (A) (A) (A) (A) (A) (A) (A) (A) (A) (A) (A)
                 (A) (A) (A) (A) (A) (A) (A) (A) (A) (A) (A) (A)
                 (A) (A) (A) (A) (A) (A) (A) (A) (A) (A) (A) (A)
                 (A) (A) (A) (A) (A) (A) (A) (A) (A) (A) (A) (A)
                 (A) (A) (A)
 The electronic state is 1-A.
 Alpha  occ. eigenvalues --  -19.19269 -19.16912 -14.43198 -14.41161 -10.35194
 Alpha  occ. eigenvalues --  -10.33553 -10.30076 -10.27976 -10.23398  -1.07644
 Alpha  occ. eigenvalues --   -1.05300  -0.95640  -0.94153  -0.77202  -0.74822
 Alpha  occ. eigenvalues --   -0.70772  -0.61354  -0.59163  -0.55324  -0.51744
 Alpha  occ. eigenvalues --   -0.50153  -0.48010  -0.47788  -0.46004  -0.43995
 Alpha  occ. eigenvalues --   -0.43156  -0.41371  -0.41130  -0.40210  -0.39113
 Alpha  occ. eigenvalues --   -0.37467  -0.29801  -0.29019  -0.26938  -0.26213
 Alpha virt. eigenvalues --    0.00654   0.01332   0.03805   0.04140   0.05089
 Alpha virt. eigenvalues --    0.05730   0.08887   0.09093   0.10812   0.10919
 Alpha virt. eigenvalues --    0.12530   0.12720   0.15118   0.16193   0.18834
 Alpha virt. eigenvalues --    0.19537   0.22873   0.24143   0.24774   0.25963
 Alpha virt. eigenvalues --    0.26617   0.27277   0.28256   0.30352   0.30861
 Alpha virt. eigenvalues --    0.32952   0.34242   0.34645   0.35867   0.36823
 Alpha virt. eigenvalues --    0.37569   0.39230   0.39830   0.40586   0.40923
 Alpha virt. eigenvalues --    0.41266   0.42629   0.43629   0.44047   0.45521
 Alpha virt. eigenvalues --    0.46091   0.46852   0.47418   0.48915   0.50044
 Alpha virt. eigenvalues --    0.50660   0.52576   0.53453   0.54018   0.56655
 Alpha virt. eigenvalues --    0.57331   0.57478   0.59852   0.62869   0.64685
 Alpha virt. eigenvalues --    0.65447   0.66411   0.69060   0.70659   0.71765
 Alpha virt. eigenvalues --    0.73598   0.74763   0.76460   0.78563   0.80589
 Alpha virt. eigenvalues --    0.80783   0.81956   0.82615   0.83375   0.84614
 Alpha virt. eigenvalues --    0.87438   0.88659   0.89660   0.91341   0.93475
 Alpha virt. eigenvalues --    0.94152   0.94771   0.96253   0.97553   0.98060
 Alpha virt. eigenvalues --    1.00184   1.00983   1.02661   1.04210   1.05122
 Alpha virt. eigenvalues --    1.06260   1.07182   1.09136   1.09690   1.11197
 Alpha virt. eigenvalues --    1.12269   1.13629   1.14182   1.17846   1.18396
 Alpha virt. eigenvalues --    1.20986   1.21341   1.21692   1.23135   1.23897
 Alpha virt. eigenvalues --    1.24383   1.26058   1.27124   1.27740   1.29313
 Alpha virt. eigenvalues --    1.29578   1.30483   1.33352   1.35729   1.36958
 Alpha virt. eigenvalues --    1.37993   1.40046   1.42608   1.43155   1.44012
 Alpha virt. eigenvalues --    1.46060   1.48031   1.49300   1.50997   1.54573
 Alpha virt. eigenvalues --    1.56709   1.61213   1.62247   1.66009   1.72811
 Alpha virt. eigenvalues --    1.74416   1.75681   1.79363   1.83433   1.83844
 Alpha virt. eigenvalues --    1.84929   1.90406   1.91833   1.95804   2.04647
 Alpha virt. eigenvalues --    2.05108   2.06985   2.09475   2.11109   2.15287
 Alpha virt. eigenvalues --    2.18921   2.21763   2.23994   2.26494   2.27950
 Alpha virt. eigenvalues --    2.28563   2.32327   2.33729   2.37687   2.39188
 Alpha virt. eigenvalues --    2.44582   2.45527   2.46877   2.51675   2.51825
 Alpha virt. eigenvalues --    2.53526   2.53920   2.55713   2.58075   2.60307
 Alpha virt. eigenvalues --    2.62010   2.64252   2.65452   2.67516   2.68776
 Alpha virt. eigenvalues --    2.69203   2.70301   2.71618   2.73601   2.75105
 Alpha virt. eigenvalues --    2.76196   2.77114   2.77871   2.78309   2.81125
 Alpha virt. eigenvalues --    2.82632   2.84214   2.88144   2.90891   2.91275
 Alpha virt. eigenvalues --    2.93232   2.93431   2.94380   2.95804   2.96054
 Alpha virt. eigenvalues --    2.96900   3.00459   3.01460   3.02746   3.03734
 Alpha virt. eigenvalues --    3.05346   3.05890   3.07742   3.08952   3.10791
 Alpha virt. eigenvalues --    3.11405   3.12880   3.14071   3.19432   3.20254
 Alpha virt. eigenvalues --    3.22156   3.22919   3.24688   3.25466   3.26048
 Alpha virt. eigenvalues --    3.27896   3.28240   3.28904   3.30696   3.32438
 Alpha virt. eigenvalues --    3.33569   3.35259   3.35903   3.36870   3.38764
 Alpha virt. eigenvalues --    3.39287   3.40871   3.41087   3.44480   3.45339
 Alpha virt. eigenvalues --    3.46516   3.48777   3.50125   3.51945   3.52975
 Alpha virt. eigenvalues --    3.53294   3.56360   3.57652   3.60169   3.61835
 Alpha virt. eigenvalues --    3.64010   3.65434   3.66437   3.68909   3.69205
 Alpha virt. eigenvalues --    3.72379   3.74019   3.74792   3.76555   3.77821
 Alpha virt. eigenvalues --    3.78390   3.81027   3.82211   3.83680   3.87030
 Alpha virt. eigenvalues --    3.87201   3.88565   3.88880   3.91054   3.92878
 Alpha virt. eigenvalues --    3.93956   3.96290   3.97946   3.99589   4.02372
 Alpha virt. eigenvalues --    4.04246   4.05273   4.06109   4.06608   4.08731
 Alpha virt. eigenvalues --    4.10867   4.11901   4.14594   4.15222   4.17399
 Alpha virt. eigenvalues --    4.18878   4.20796   4.21856   4.23362   4.26310
 Alpha virt. eigenvalues --    4.27987   4.29268   4.30197   4.32117   4.34553
 Alpha virt. eigenvalues --    4.35867   4.38076   4.41718   4.44182   4.44869
 Alpha virt. eigenvalues --    4.46124   4.49277   4.54881   4.59572   4.62703
 Alpha virt. eigenvalues --    4.64444   4.67921   4.70283   4.71633   4.72758
 Alpha virt. eigenvalues --    4.74189   4.76109   4.76202   4.77456   4.78674
 Alpha virt. eigenvalues --    4.82623   4.84643   4.86815   4.88178   4.90830
 Alpha virt. eigenvalues --    4.92343   4.96080   4.97328   4.97926   4.99314
 Alpha virt. eigenvalues --    5.00796   5.02348   5.03712   5.05058   5.08223
 Alpha virt. eigenvalues --    5.11344   5.12256   5.13823   5.14844   5.16956
 Alpha virt. eigenvalues --    5.19050   5.19883   5.20924   5.22740   5.23389
 Alpha virt. eigenvalues --    5.26055   5.28109   5.29776   5.32407   5.34123
 Alpha virt. eigenvalues --    5.36391   5.37946   5.42269   5.43057   5.51529
 Alpha virt. eigenvalues --    5.59240   5.60796   5.63616   5.67986   5.69942
 Alpha virt. eigenvalues --    5.72012   5.72884   5.76470   5.79040   5.83176
 Alpha virt. eigenvalues --    5.84120   5.85188   5.89960   5.90920   5.97862
 Alpha virt. eigenvalues --    6.00057   6.02834   6.07688   6.24545   6.28946
 Alpha virt. eigenvalues --    6.30918   6.37285   6.44524   6.47822   6.49152
 Alpha virt. eigenvalues --    6.54789   6.58832   6.63617   6.88056   6.90525
 Alpha virt. eigenvalues --    6.91262   6.92414   7.08824   7.09798   7.15534
 Alpha virt. eigenvalues --    7.16699   9.16842   9.37010  12.26907  12.53338
 Alpha virt. eigenvalues --   12.97755  13.28660  13.32026  13.53521  13.69634
          Condensed to atoms (all electrons):
              1          2          3          4          5          6
     1  C    5.225263   0.406939   0.413352   0.154302   0.303901  -0.027616
     2  H    0.406939   0.527816  -0.018953  -0.061550  -0.031606   0.004837
     3  H    0.413352  -0.018953   0.515033  -0.039097  -0.016992  -0.009229
     4  C    0.154302  -0.061550  -0.039097   4.629314  -0.053636  -0.003071
     5  N    0.303901  -0.031606  -0.016992  -0.053636   6.483449   0.346321
     6  H   -0.027616   0.004837  -0.009229  -0.003071   0.346321   0.564759
     7  O   -0.096401  -0.000277   0.002245   0.732044   0.000317   0.000946
     8  N   -0.081726   0.003964   0.002958   0.421881   0.004340   0.000000
     9  H    0.007275   0.000132   0.000285  -0.034921   0.000285  -0.000085
    10  C    0.004767  -0.000843  -0.000458  -0.049466  -0.000385  -0.000016
    11  H    0.003910  -0.000252  -0.000286  -0.012422  -0.000180  -0.000005
    12  H   -0.000171   0.000062   0.000091   0.003886  -0.000004   0.000000
    13  H   -0.000132   0.000032  -0.000088  -0.000042   0.000037   0.000000
    14  C   -0.058505  -0.004735   0.002839   0.004428   0.364156  -0.022920
    15  C    0.002890  -0.000107   0.000073  -0.007481  -0.115054   0.015120
    16  H    0.001563  -0.003338   0.000507   0.000408  -0.000688  -0.001044
    17  H   -0.000364   0.000032   0.000065   0.000242   0.007185  -0.000751
    18  H   -0.006142   0.001799   0.000225   0.000885   0.004945  -0.000797
    19  O    0.003093   0.000096  -0.000284  -0.000338  -0.146730   0.019037
              7          8          9         10         11         12
     1  C   -0.096401  -0.081726   0.007275   0.004767   0.003910  -0.000171
     2  H   -0.000277   0.003964   0.000132  -0.000843  -0.000252   0.000062
     3  H    0.002245   0.002958   0.000285  -0.000458  -0.000286   0.000091
     4  C    0.732044   0.421881  -0.034921  -0.049466  -0.012422   0.003886
     5  N    0.000317   0.004340   0.000285  -0.000385  -0.000180  -0.000004
     6  H    0.000946   0.000000  -0.000085  -0.000016  -0.000005   0.000000
     7  O    7.802658  -0.111832   0.004741  -0.016753   0.030292   0.000050
     8  N   -0.111832   6.416721   0.385646   0.257435  -0.041349  -0.036565
     9  H    0.004741   0.385646   0.543925  -0.031067   0.005832  -0.004204
    10  C   -0.016753   0.257435  -0.031067   4.805401   0.396774   0.401082
    11  H    0.030292  -0.041349   0.005832   0.396774   0.536998  -0.025225
    12  H    0.000050  -0.036565  -0.004204   0.401082  -0.025225   0.610066
    13  H   -0.000236  -0.033160  -0.003615   0.403887  -0.027214  -0.043296
    14  C    0.014961   0.000762  -0.000139  -0.000012  -0.000055  -0.000004
    15  C   -0.006244  -0.000287   0.000044  -0.000018   0.000012  -0.000002
    16  H    0.010511  -0.000116  -0.000072   0.000089   0.000003   0.000031
    17  H    0.000128  -0.000001   0.000002   0.000001  -0.000001   0.000000
    18  H    0.000374  -0.000018  -0.000010   0.000007   0.000000   0.000000
    19  O   -0.000468  -0.000005  -0.000001   0.000000   0.000001   0.000000
             13         14         15         16         17         18
     1  C   -0.000132  -0.058505   0.002890   0.001563  -0.000364  -0.006142
     2  H    0.000032  -0.004735  -0.000107  -0.003338   0.000032   0.001799
     3  H   -0.000088   0.002839   0.000073   0.000507   0.000065   0.000225
     4  C   -0.000042   0.004428  -0.007481   0.000408   0.000242   0.000885
     5  N    0.000037   0.364156  -0.115054  -0.000688   0.007185   0.004945
     6  H    0.000000  -0.022920   0.015120  -0.001044  -0.000751  -0.000797
     7  O   -0.000236   0.014961  -0.006244   0.010511   0.000128   0.000374
     8  N   -0.033160   0.000762  -0.000287  -0.000116  -0.000001  -0.000018
     9  H   -0.003615  -0.000139   0.000044  -0.000072   0.000002  -0.000010
    10  C    0.403887  -0.000012  -0.000018   0.000089   0.000001   0.000007
    11  H   -0.027214  -0.000055   0.000012   0.000003  -0.000001   0.000000
    12  H   -0.043296  -0.000004  -0.000002   0.000031   0.000000   0.000000
    13  H    0.607708   0.000004   0.000000  -0.000007   0.000000   0.000000
    14  C    0.000004   4.470056   0.238908  -0.021460  -0.031857  -0.029312
    15  C    0.000000   0.238908   5.241014   0.366446   0.388914   0.369045
    16  H   -0.000007  -0.021460   0.366446   0.539922  -0.007271  -0.034693
    17  H    0.000000  -0.031857   0.388914  -0.007271   0.516010  -0.013521
    18  H    0.000000  -0.029312   0.369045  -0.034693  -0.013521   0.581338
    19  O    0.000000   0.777726  -0.090785   0.001454   0.009686   0.001463
             19
     1  C    0.003093
     2  H    0.000096
     3  H   -0.000284
     4  C   -0.000338
     5  N   -0.146730
     6  H    0.019037
     7  O   -0.000468
     8  N   -0.000005
     9  H   -0.000001
    10  C    0.000000
    11  H    0.000001
    12  H    0.000000
    13  H    0.000000
    14  C    0.777726
    15  C   -0.090785
    16  H    0.001454
    17  H    0.009686
    18  H    0.001463
    19  O    7.792670
 Mulliken atomic charges:
              1
     1  C   -0.256195
     2  H    0.175952
     3  H    0.147716
     4  C    0.314633
     5  N   -0.149659
     6  H    0.114513
     7  O   -0.367053
     8  N   -0.188649
     9  H    0.125949
    10  C   -0.170425
    11  H    0.133167
    12  H    0.094203
    13  H    0.096121
    14  C    0.295160
    15  C   -0.402486
    16  H    0.147754
    17  H    0.131501
    18  H    0.124412
    19  O   -0.366614
 Sum of Mulliken atomic charges =   0.00000
 Mulliken charges with hydrogens summed into heavy atoms:
              1
     1  C    0.067474
     4  C    0.314633
     5  N   -0.035146
     7  O   -0.367053
     8  N   -0.062700
    10  C    0.153066
    14  C    0.295160
    15  C    0.001182
    19  O   -0.366614
 Sum of Mulliken charges with hydrogens summed into heavy atoms =   0.00000
 Electronic spatial extent (au):  <R**2>=           1565.8172
 Charge=              0.0000 electrons
 Dipole moment (field-independent basis, Debye):
    X=             -5.3107    Y=              2.6962    Z=              3.4696  Tot=              6.8928
 Quadrupole moment (field-independent basis, Debye-Ang):
   XX=            -57.7460   YY=            -50.9715   ZZ=            -54.0987
   XY=             -2.7808   XZ=              3.5994   YZ=             -2.1995
 Traceless Quadrupole moment (field-independent basis, Debye-Ang):
   XX=             -3.4739   YY=              3.3006   ZZ=              0.1733
   XY=             -2.7808   XZ=              3.5994   YZ=             -2.1995
 Octapole moment (field-independent basis, Debye-Ang**2):
  XXX=            -78.9992  YYY=              6.2022  ZZZ=             -1.4100  XYY=             -0.5467
  XXY=             -0.5445  XXZ=             19.7719  XZZ=             -3.0374  YZZ=              4.5561
  YYZ=             -1.3091  XYZ=             -5.1282
 Hexadecapole moment (field-independent basis, Debye-Ang**3):
 XXXX=          -1619.9613 YYYY=           -234.7263 ZZZZ=           -190.2239 XXXY=             -5.7482
 XXXZ=             51.1970 YYYX=             -6.1395 YYYZ=             -2.0344 ZZZX=             -5.7801
 ZZZY=              0.7980 XXYY=           -285.0334 XXZZ=           -300.0425 YYZZ=            -70.0619
 XXYZ=             -0.1847 YYXZ=            -10.2982 ZZXY=              0.3867
 N-N= 4.615609580984D+02 E-N=-1.989461682102D+03  KE= 4.532544498437D+02
 Calculating spin-rotation constants.
 Leave Link  601 at Fri Feb 22 17:15:46 2013, MaxMem= 2147483648 cpu:     149.7
 (Enter /home/ztw1e12/g09/l9999.exe)

 Test job not archived.
 1\1\GINC-RED0016\SP\RM06\Gen\C5H10N2O2\ZTW1E12\22-Feb-2013\0\\#P Geom=
 AllCheck Guess=TCheck SCRF=Check GenChk RM06/ChkBas NMR=ReadFC IOp(3/6
 =22)\\J-coupling calculation 1\\0,1\C,0,-2.6590295409,0.7393934841,1.4
 419311199\H,0,-3.3108708729,1.3322892477,2.0901441577\H,0,-2.435628123
 4,-0.1737499375,1.9998417831\C,0,-1.3795870327,1.5453545816,1.22787393
 57\N,0,-3.3443104149,0.3976251046,0.2359268271\H,0,-3.014123862,-0.404
 1392414,-0.2787229786\O,0,-1.1721829421,2.1662199692,0.2122886871\N,0,
 -0.5379506419,1.5249720005,2.2923849866\H,0,-0.7848782918,0.9624172216
 ,3.0880455323\C,0,0.6902815043,2.2806743,2.327025532\H,0,0.7760074252,
 2.808601951,1.3802042273\H,0,0.688415213,3.0104197479,3.1378456809\H,0
 ,1.5565986249,1.6284230513,2.443462056\C,0,-4.1091794785,1.2353496997,
 -0.5393887368\C,0,-4.4991463209,2.5498375807,0.0741123524\H,0,-3.61684
 81019,3.1759219188,0.2119756703\H,0,-5.1902934112,3.0466832268,-0.5998
 8641\H,0,-4.9790149203,2.4163472202,1.0452695877\O,0,-4.4634148321,0.8
 952247632,-1.6429499206\\Version=EM64L-G09RevA.02\State=1-A\HF=-456.40
 36688\RMSD=3.454e-09\Dipole=0.9097149,-0.2948072,2.5376389\Quadrupole=
 0.2445373,2.4662382,-2.7107755,-3.0710034,-1.3217535,-1.5939838\PG=C01
  [X(C5H10N2O2)]\\@


 FAULTILY FAULTLESS, ICILY REGULAR, SPLENDIDLY NULL...
           MAUDE BY TENNYSON
 Job cpu time:  1 days  2 hours 47 minutes  2.6 seconds.
 File lengths (MBytes):  RWF=    796 Int=      0 D2E=      0 Chk=     24 Scr=      4
 Normal termination of Gaussian 09 at Fri Feb 22 17:15:47 2013.
