 Entering Gaussian System, Link 0=g09
 Input=histidine.gjf
 Output=histidine.log
 Initial command:
 /system/software/linux-x86_64/gaussian/g09/A.02__pgi_8.0-6__acml/l1.exe /export/home/spin_dynamics/kuprov/zenawi/Gau-47431.inp -scrdir=/export/home/spin_dynamics/kuprov/zenawi/
 Entering Link 1 = /system/software/linux-x86_64/gaussian/g09/A.02__pgi_8.0-6__acml/l1.exe PID=     47434.
  
 Copyright (c) 1988,1990,1992,1993,1995,1998,2003,2009, Gaussian, Inc.
                  All Rights Reserved.
  
 This is part of the Gaussian(R) 09 program.  It is based on
 the Gaussian(R) 03 system (copyright 2003, Gaussian, Inc.),
 the Gaussian(R) 98 system (copyright 1998, Gaussian, Inc.),
 the Gaussian(R) 94 system (copyright 1995, Gaussian, Inc.),
 the Gaussian 92(TM) system (copyright 1992, Gaussian, Inc.),
 the Gaussian 90(TM) system (copyright 1990, Gaussian, Inc.),
 the Gaussian 88(TM) system (copyright 1988, Gaussian, Inc.),
 the Gaussian 86(TM) system (copyright 1986, Carnegie Mellon
 University), and the Gaussian 82(TM) system (copyright 1983,
 Carnegie Mellon University). Gaussian is a federally registered
 trademark of Gaussian, Inc.
  
 This software contains proprietary and confidential information,
 including trade secrets, belonging to Gaussian, Inc.
  
 This software is provided under written license and may be
 used, copied, transmitted, or stored only in accord with that
 written license.
  
 The following legend is applicable only to US Government
 contracts under FAR:
  
                    RESTRICTED RIGHTS LEGEND
  
 Use, reproduction and disclosure by the US Government is
 subject to restrictions as set forth in subparagraphs (a)
 and (c) of the Commercial Computer Software - Restricted
 Rights clause in FAR 52.227-19.
  
 Gaussian, Inc.
 340 Quinnipiac St., Bldg. 40, Wallingford CT 06492
  
  
 ---------------------------------------------------------------
 Warning -- This program may not be used in any manner that
 competes with the business of Gaussian, Inc. or will provide
 assistance to any competitor of Gaussian, Inc.  The licensee
 of this program is prohibited from giving any competitor of
 Gaussian, Inc. access to this program.  By using this program,
 the user acknowledges that Gaussian, Inc. is engaged in the
 business of creating and licensing software in the field of
 computational chemistry and represents and warrants to the
 licensee that it is not a competitor of Gaussian, Inc. and that
 it will not use this program in any manner prohibited above.
 ---------------------------------------------------------------
  

 Cite this work as:
 Gaussian 09, Revision A.02,
 M. J. Frisch, G. W. Trucks, H. B. Schlegel, G. E. Scuseria, 
 M. A. Robb, J. R. Cheeseman, G. Scalmani, V. Barone, B. Mennucci, 
 G. A. Petersson, H. Nakatsuji, M. Caricato, X. Li, H. P. Hratchian, 
 A. F. Izmaylov, J. Bloino, G. Zheng, J. L. Sonnenberg, M. Hada, 
 M. Ehara, K. Toyota, R. Fukuda, J. Hasegawa, M. Ishida, T. Nakajima, 
 Y. Honda, O. Kitao, H. Nakai, T. Vreven, J. A. Montgomery, Jr., 
 J. E. Peralta, F. Ogliaro, M. Bearpark, J. J. Heyd, E. Brothers, 
 K. N. Kudin, V. N. Staroverov, R. Kobayashi, J. Normand, 
 K. Raghavachari, A. Rendell, J. C. Burant, S. S. Iyengar, J. Tomasi, 
 M. Cossi, N. Rega, J. M. Millam, M. Klene, J. E. Knox, J. B. Cross, 
 V. Bakken, C. Adamo, J. Jaramillo, R. Gomperts, R. E. Stratmann, 
 O. Yazyev, A. J. Austin, R. Cammi, C. Pomelli, J. W. Ochterski, 
 R. L. Martin, K. Morokuma, V. G. Zakrzewski, G. A. Voth, 
 P. Salvador, J. J. Dannenberg, S. Dapprich, A. D. Daniels, 
 O. Farkas, J. B. Foresman, J. V. Ortiz, J. Cioslowski, 
 and D. J. Fox, Gaussian, Inc., Wallingford CT, 2009.
 
 ******************************************
 Gaussian 09:  EM64L-G09RevA.02 11-Jun-2009
                 1-Apr-2013 
 ******************************************
 %chk=histidine.chk
 %mem=32GB
 %nprocshared=16
 Will use up to   16 processors via shared memory.
 ------------------------------------------------------------
 #p opt=tight m06/cc-pvtz scf=tight integral=(grid=ultrafine)
 ------------------------------------------------------------
 1/7=10,14=-1,18=20,19=15,26=3,38=1/1,3;
 2/9=110,12=2,17=6,18=5,40=1/2;
 3/5=16,6=1,11=2,16=1,25=1,30=1,71=1,74=-54,75=-5/1,2,3;
 4//1;
 5/5=2,32=2,38=5/2;
 6/7=2,8=2,9=2,10=2,28=1/1;
 7//1,2,3,16;
 1/7=10,14=-1,18=20,19=15/3(2);
 2/9=110/2;
 99//99;
 2/9=110/2;
 3/5=16,6=1,11=2,16=1,25=1,30=1,71=1,74=-54,75=-5/1,2,3;
 4/5=5,16=3/1;
 5/5=2,32=2,38=5/2;
 7//1,2,3,16;
 1/7=10,14=-1,18=20,19=15/3(-5);
 2/9=110/2;
 6/7=2,8=2,9=2,10=2,19=2,28=1/1;
 99/9=1/99;
 Leave Link    1 at Mon Apr  1 01:28:27 2013, MaxMem= 4294967296 cpu:      30.3
 (Enter /system/software/linux-x86_64/gaussian/g09/A.02__pgi_8.0-6__acml/l101.exe)
 ---------------------
 Geometry optimisation
 ---------------------
 Symbolic Z-matrix:
 Charge =  1 Multiplicity = 1
 C                    -1.73651  -2.17197   0.65184 
 C                    -1.85533  -0.85522   0.39416 
 C                    -3.78517  -1.77547  -0.28497 
 H                    -0.95842  -2.62425   1.23055 
 H                    -4.81987  -1.8946   -0.53012 
 C                    -0.45717   2.64758   1.28617 
 N                    -2.39529   1.40624   2.14899 
 H                    -1.85466   1.13427   2.94507 
 O                    -0.0682    2.83685   2.46789 
 C                    -1.50993   1.56438   0.98623 
 H                    -2.08841   1.85539   0.13442 
 C                    -0.80257   0.22799   0.69411 
 H                    -0.15812   0.3431   -0.15226 
 H                    -0.22409  -0.06302   1.54592 
 N                    -3.1715   -0.63628  -0.20266 
 N                    -2.85518  -2.88738   0.01427 
 H                    -2.55538  -3.33424  -0.8286 
 N                     0.09334   3.46046   0.19207 
 H                    -0.46901   4.27811   0.06874 
 C                     1.46985   3.85757   0.52137 
 H                     1.87056   4.44926  -0.27501 
 H                     1.46935   4.42982   1.42549 
 H                     2.07157   2.98269   0.65334 
 C                    -3.0705    2.68188   2.42783 
 C                    -4.47438   2.68775   3.06083 
 H                    -4.58864   1.82486   3.68313 
 H                    -4.59573   3.57186   3.65119 
 H                    -5.21417   2.67062   2.28797 
 O                    -2.50133   3.76909   2.14928 
 H                    -3.54293   0.24783  -0.48619 
 
 NAtoms=     30 NQM=     30 NQMF=      0 NMic=      0 NMicF=      0 NTot=     30.
                    Isotopes and Nuclear Properties:
 (Nuclear quadrupole moments (NQMom) in fm**2, nuclear magnetic moments (NMagM)
  in nuclear magnetons)

  Atom         1           2           3           4           5           6           7           8           9          10
 IAtWgt=          12          12          12           1           1          12          14           1          16          12
 AtmWgt=  12.0000000  12.0000000  12.0000000   1.0078250   1.0078250  12.0000000  14.0030740   1.0078250  15.9949146  12.0000000
 NucSpn=           0           0           0           1           1           0           2           1           0           0
 AtZEff=   0.0000000   0.0000000   0.0000000   0.0000000   0.0000000   0.0000000   0.0000000   0.0000000   0.0000000   0.0000000
 NQMom=    0.0000000   0.0000000   0.0000000   0.0000000   0.0000000   0.0000000   2.0440000   0.0000000   0.0000000   0.0000000
 NMagM=    0.0000000   0.0000000   0.0000000   2.7928460   2.7928460   0.0000000   0.4037610   2.7928460   0.0000000   0.0000000

  Atom        11          12          13          14          15          16          17          18          19          20
 IAtWgt=           1          12           1           1          14          14           1          14           1          12
 AtmWgt=   1.0078250  12.0000000   1.0078250   1.0078250  14.0030740  14.0030740   1.0078250  14.0030740   1.0078250  12.0000000
 NucSpn=           1           0           1           1           2           2           1           2           1           0
 AtZEff=   0.0000000   0.0000000   0.0000000   0.0000000   0.0000000   0.0000000   0.0000000   0.0000000   0.0000000   0.0000000
 NQMom=    0.0000000   0.0000000   0.0000000   0.0000000   2.0440000   2.0440000   0.0000000   2.0440000   0.0000000   0.0000000
 NMagM=    2.7928460   0.0000000   2.7928460   2.7928460   0.4037610   0.4037610   2.7928460   0.4037610   2.7928460   0.0000000

  Atom        21          22          23          24          25          26          27          28          29          30
 IAtWgt=           1           1           1          12          12           1           1           1          16           1
 AtmWgt=   1.0078250   1.0078250   1.0078250  12.0000000  12.0000000   1.0078250   1.0078250   1.0078250  15.9949146   1.0078250
 NucSpn=           1           1           1           0           0           1           1           1           0           1
 AtZEff=   0.0000000   0.0000000   0.0000000   0.0000000   0.0000000   0.0000000   0.0000000   0.0000000   0.0000000   0.0000000
 NQMom=    0.0000000   0.0000000   0.0000000   0.0000000   0.0000000   0.0000000   0.0000000   0.0000000   0.0000000   0.0000000
 NMagM=    2.7928460   2.7928460   2.7928460   0.0000000   0.0000000   2.7928460   2.7928460   2.7928460   0.0000000   2.7928460
 Leave Link  101 at Mon Apr  1 01:28:30 2013, MaxMem= 4294967296 cpu:       9.0
 (Enter /system/software/linux-x86_64/gaussian/g09/A.02__pgi_8.0-6__acml/l103.exe)

 GradGradGradGradGradGradGradGradGradGradGradGradGradGradGradGradGradGrad
 Berny optimization.
 Initialization pass.
                           ----------------------------
                           !    Initial Parameters    !
                           ! (Angstroms and Degrees)  !
 --------------------------                            --------------------------
 ! Name  Definition              Value          Derivative Info.                !
 --------------------------------------------------------------------------------
 ! R1    R(1,2)                  1.347          estimate D2E/DX2                !
 ! R2    R(1,4)                  1.07           estimate D2E/DX2                !
 ! R3    R(1,16)                 1.473          estimate D2E/DX2                !
 ! R4    R(2,12)                 1.54           estimate D2E/DX2                !
 ! R5    R(2,15)                 1.4617         estimate D2E/DX2                !
 ! R6    R(3,5)                  1.07           estimate D2E/DX2                !
 ! R7    R(3,15)                 1.2966         estimate D2E/DX2                !
 ! R8    R(3,16)                 1.4801         estimate D2E/DX2                !
 ! R9    R(6,9)                  1.2584         estimate D2E/DX2                !
 ! R10   R(6,10)                 1.54           estimate D2E/DX2                !
 ! R11   R(6,18)                 1.47           estimate D2E/DX2                !
 ! R12   R(7,8)                  1.0            estimate D2E/DX2                !
 ! R13   R(7,10)                 1.47           estimate D2E/DX2                !
 ! R14   R(7,24)                 1.47           estimate D2E/DX2                !
 ! R15   R(10,11)                1.07           estimate D2E/DX2                !
 ! R16   R(10,12)                1.54           estimate D2E/DX2                !
 ! R17   R(12,13)                1.07           estimate D2E/DX2                !
 ! R18   R(12,14)                1.07           estimate D2E/DX2                !
 ! R19   R(15,30)                1.0            estimate D2E/DX2                !
 ! R20   R(16,17)                1.0            estimate D2E/DX2                !
 ! R21   R(18,19)                1.0            estimate D2E/DX2                !
 ! R22   R(18,20)                1.47           estimate D2E/DX2                !
 ! R23   R(20,21)                1.07           estimate D2E/DX2                !
 ! R24   R(20,22)                1.07           estimate D2E/DX2                !
 ! R25   R(20,23)                1.07           estimate D2E/DX2                !
 ! R26   R(24,25)                1.54           estimate D2E/DX2                !
 ! R27   R(24,29)                1.2584         estimate D2E/DX2                !
 ! R28   R(25,26)                1.07           estimate D2E/DX2                !
 ! R29   R(25,27)                1.07           estimate D2E/DX2                !
 ! R30   R(25,28)                1.07           estimate D2E/DX2                !
 ! A1    A(2,1,4)              125.5081         estimate D2E/DX2                !
 ! A2    A(2,1,16)             108.9651         estimate D2E/DX2                !
 ! A3    A(4,1,16)             125.526          estimate D2E/DX2                !
 ! A4    A(1,2,12)             126.1598         estimate D2E/DX2                !
 ! A5    A(1,2,15)             107.696          estimate D2E/DX2                !
 ! A6    A(12,2,15)            126.1382         estimate D2E/DX2                !
 ! A7    A(5,3,15)             124.7537         estimate D2E/DX2                !
 ! A8    A(5,3,16)             124.7692         estimate D2E/DX2                !
 ! A9    A(15,3,16)            110.4764         estimate D2E/DX2                !
 ! A10   A(9,6,10)             120.0            estimate D2E/DX2                !
 ! A11   A(9,6,18)             120.0            estimate D2E/DX2                !
 ! A12   A(10,6,18)            120.0            estimate D2E/DX2                !
 ! A13   A(8,7,10)             109.4712         estimate D2E/DX2                !
 ! A14   A(8,7,24)             109.4712         estimate D2E/DX2                !
 ! A15   A(10,7,24)            109.4712         estimate D2E/DX2                !
 ! A16   A(6,10,7)             109.4712         estimate D2E/DX2                !
 ! A17   A(6,10,11)            109.4712         estimate D2E/DX2                !
 ! A18   A(6,10,12)            109.4712         estimate D2E/DX2                !
 ! A19   A(7,10,11)            109.4712         estimate D2E/DX2                !
 ! A20   A(7,10,12)            109.4712         estimate D2E/DX2                !
 ! A21   A(11,10,12)           109.4712         estimate D2E/DX2                !
 ! A22   A(2,12,10)            109.4712         estimate D2E/DX2                !
 ! A23   A(2,12,13)            109.4712         estimate D2E/DX2                !
 ! A24   A(2,12,14)            109.4712         estimate D2E/DX2                !
 ! A25   A(10,12,13)           109.4712         estimate D2E/DX2                !
 ! A26   A(10,12,14)           109.4712         estimate D2E/DX2                !
 ! A27   A(13,12,14)           109.4712         estimate D2E/DX2                !
 ! A28   A(2,15,3)             108.6934         estimate D2E/DX2                !
 ! A29   A(2,15,30)            125.6378         estimate D2E/DX2                !
 ! A30   A(3,15,30)            125.6614         estimate D2E/DX2                !
 ! A31   A(1,16,3)             101.5267         estimate D2E/DX2                !
 ! A32   A(1,16,17)            110.743          estimate D2E/DX2                !
 ! A33   A(3,16,17)            110.7116         estimate D2E/DX2                !
 ! A34   A(6,18,19)            109.4712         estimate D2E/DX2                !
 ! A35   A(6,18,20)            109.4712         estimate D2E/DX2                !
 ! A36   A(19,18,20)           109.4712         estimate D2E/DX2                !
 ! A37   A(18,20,21)           109.4712         estimate D2E/DX2                !
 ! A38   A(18,20,22)           109.4712         estimate D2E/DX2                !
 ! A39   A(18,20,23)           109.4712         estimate D2E/DX2                !
 ! A40   A(21,20,22)           109.4712         estimate D2E/DX2                !
 ! A41   A(21,20,23)           109.4712         estimate D2E/DX2                !
 ! A42   A(22,20,23)           109.4712         estimate D2E/DX2                !
 ! A43   A(7,24,25)            120.0            estimate D2E/DX2                !
 ! A44   A(7,24,29)            120.0            estimate D2E/DX2                !
 ! A45   A(25,24,29)           120.0            estimate D2E/DX2                !
 ! A46   A(24,25,26)           109.4712         estimate D2E/DX2                !
 ! A47   A(24,25,27)           109.4712         estimate D2E/DX2                !
 ! A48   A(24,25,28)           109.4712         estimate D2E/DX2                !
 ! A49   A(26,25,27)           109.4712         estimate D2E/DX2                !
 ! A50   A(26,25,28)           109.4712         estimate D2E/DX2                !
 ! A51   A(27,25,28)           109.4712         estimate D2E/DX2                !
 ! D1    D(4,1,2,12)             9.6936         estimate D2E/DX2                !
 ! D2    D(4,1,2,15)          -169.4545         estimate D2E/DX2                !
 ! D3    D(16,1,2,12)         -170.6167         estimate D2E/DX2                !
 ! D4    D(16,1,2,15)           10.2352         estimate D2E/DX2                !
 ! D5    D(2,1,16,3)           -15.3913         estimate D2E/DX2                !
 ! D6    D(2,1,16,17)          102.2024         estimate D2E/DX2                !
 ! D7    D(4,1,16,3)           164.2983         estimate D2E/DX2                !
 ! D8    D(4,1,16,17)          -78.108          estimate D2E/DX2                !
 ! D9    D(1,2,12,10)         -149.4975         estimate D2E/DX2                !
 ! D10   D(1,2,12,13)           90.5025         estimate D2E/DX2                !
 ! D11   D(1,2,12,14)          -29.4975         estimate D2E/DX2                !
 ! D12   D(15,2,12,10)          29.4975         estimate D2E/DX2                !
 ! D13   D(15,2,12,13)         -90.5025         estimate D2E/DX2                !
 ! D14   D(15,2,12,14)         149.4975         estimate D2E/DX2                !
 ! D15   D(1,2,15,3)             0.038          estimate D2E/DX2                !
 ! D16   D(1,2,15,30)          179.0951         estimate D2E/DX2                !
 ! D17   D(12,2,15,3)         -179.1103         estimate D2E/DX2                !
 ! D18   D(12,2,15,30)          -0.0532         estimate D2E/DX2                !
 ! D19   D(5,3,15,2)           169.3778         estimate D2E/DX2                !
 ! D20   D(5,3,15,30)           -9.679          estimate D2E/DX2                !
 ! D21   D(16,3,15,2)          -10.3433         estimate D2E/DX2                !
 ! D22   D(16,3,15,30)         170.5998         estimate D2E/DX2                !
 ! D23   D(5,3,16,1)          -163.9932         estimate D2E/DX2                !
 ! D24   D(5,3,16,17)           78.3904         estimate D2E/DX2                !
 ! D25   D(15,3,16,1)           15.7279         estimate D2E/DX2                !
 ! D26   D(15,3,16,17)        -101.8885         estimate D2E/DX2                !
 ! D27   D(9,6,10,7)            30.0            estimate D2E/DX2                !
 ! D28   D(9,6,10,11)          150.0            estimate D2E/DX2                !
 ! D29   D(9,6,10,12)          -90.0            estimate D2E/DX2                !
 ! D30   D(18,6,10,7)         -150.0            estimate D2E/DX2                !
 ! D31   D(18,6,10,11)         -30.0            estimate D2E/DX2                !
 ! D32   D(18,6,10,12)          90.0            estimate D2E/DX2                !
 ! D33   D(9,6,18,19)          -90.0            estimate D2E/DX2                !
 ! D34   D(9,6,18,20)           30.0            estimate D2E/DX2                !
 ! D35   D(10,6,18,19)          90.0            estimate D2E/DX2                !
 ! D36   D(10,6,18,20)        -150.0            estimate D2E/DX2                !
 ! D37   D(8,7,10,6)           -60.0            estimate D2E/DX2                !
 ! D38   D(8,7,10,11)          180.0            estimate D2E/DX2                !
 ! D39   D(8,7,10,12)           60.0            estimate D2E/DX2                !
 ! D40   D(24,7,10,6)           60.0            estimate D2E/DX2                !
 ! D41   D(24,7,10,11)         -60.0            estimate D2E/DX2                !
 ! D42   D(24,7,10,12)         180.0            estimate D2E/DX2                !
 ! D43   D(8,7,24,25)          -90.0            estimate D2E/DX2                !
 ! D44   D(8,7,24,29)           90.0            estimate D2E/DX2                !
 ! D45   D(10,7,24,25)         150.0            estimate D2E/DX2                !
 ! D46   D(10,7,24,29)         -30.0            estimate D2E/DX2                !
 ! D47   D(6,10,12,2)          180.0            estimate D2E/DX2                !
 ! D48   D(6,10,12,13)         -60.0            estimate D2E/DX2                !
 ! D49   D(6,10,12,14)          60.0            estimate D2E/DX2                !
 ! D50   D(7,10,12,2)           60.0            estimate D2E/DX2                !
 ! D51   D(7,10,12,13)         180.0            estimate D2E/DX2                !
 ! D52   D(7,10,12,14)         -60.0            estimate D2E/DX2                !
 ! D53   D(11,10,12,2)         -60.0            estimate D2E/DX2                !
 ! D54   D(11,10,12,13)         60.0            estimate D2E/DX2                !
 ! D55   D(11,10,12,14)       -180.0            estimate D2E/DX2                !
 ! D56   D(6,18,20,21)         180.0            estimate D2E/DX2                !
 ! D57   D(6,18,20,22)         -60.0            estimate D2E/DX2                !
 ! D58   D(6,18,20,23)          60.0            estimate D2E/DX2                !
 ! D59   D(19,18,20,21)        -60.0            estimate D2E/DX2                !
 ! D60   D(19,18,20,22)         60.0            estimate D2E/DX2                !
 ! D61   D(19,18,20,23)        180.0            estimate D2E/DX2                !
 ! D62   D(7,24,25,26)          30.0            estimate D2E/DX2                !
 ! D63   D(7,24,25,27)         150.0            estimate D2E/DX2                !
 ! D64   D(7,24,25,28)         -90.0            estimate D2E/DX2                !
 ! D65   D(29,24,25,26)       -150.0            estimate D2E/DX2                !
 ! D66   D(29,24,25,27)        -30.0            estimate D2E/DX2                !
 ! D67   D(29,24,25,28)         90.0            estimate D2E/DX2                !
 --------------------------------------------------------------------------------
 Trust Radius=3.00D-01 FncErr=1.00D-07 GrdErr=1.00D-06
 Number of steps in this run= 158 maximum allowed number of steps= 180.
 GradGradGradGradGradGradGradGradGradGradGradGradGradGradGradGradGradGrad

 Leave Link  103 at Mon Apr  1 01:28:33 2013, MaxMem= 4294967296 cpu:       5.6
 (Enter /system/software/linux-x86_64/gaussian/g09/A.02__pgi_8.0-6__acml/l202.exe)
                          Input orientation:                          
 ---------------------------------------------------------------------
 Center     Atomic      Atomic             Coordinates (Angstroms)
 Number     Number       Type             X           Y           Z
 ---------------------------------------------------------------------
      1          6           0       -1.736515   -2.171966    0.651843
      2          6           0       -1.855327   -0.855216    0.394161
      3          6           0       -3.785170   -1.775468   -0.284973
      4          1           0       -0.958419   -2.624248    1.230555
      5          1           0       -4.819875   -1.894597   -0.530115
      6          6           0       -0.457173    2.647584    1.286174
      7          7           0       -2.395295    1.406240    2.148988
      8          1           0       -1.854660    1.134266    2.945068
      9          8           0       -0.068196    2.836854    2.467886
     10          6           0       -1.509927    1.564376    0.986226
     11          1           0       -2.088406    1.855388    0.134420
     12          6           0       -0.802574    0.227993    0.694109
     13          1           0       -0.158122    0.343098   -0.152255
     14          1           0       -0.224094   -0.063020    1.545915
     15          7           0       -3.171503   -0.636276   -0.202655
     16          7           0       -2.855182   -2.887378    0.014271
     17          1           0       -2.555377   -3.334245   -0.828598
     18          7           0        0.093344    3.460462    0.192071
     19          1           0       -0.469012    4.278108    0.068737
     20          6           0        1.469847    3.857574    0.521374
     21          1           0        1.870563    4.449261   -0.275014
     22          1           0        1.469355    4.429825    1.425492
     23          1           0        2.071567    2.982693    0.653341
     24          6           0       -3.070496    2.681878    2.427826
     25          6           0       -4.474375    2.687754    3.060825
     26          1           0       -4.588643    1.824865    3.683132
     27          1           0       -4.595735    3.571861    3.651187
     28          1           0       -5.214171    2.670618    2.287968
     29          8           0       -2.501334    3.769093    2.149277
     30          1           0       -3.542928    0.247834   -0.486193
 ---------------------------------------------------------------------
                    Distance matrix (angstroms):
                    1          2          3          4          5
     1  C    0.000000
     2  C    1.346977   0.000000
     3  C    2.287318   2.243297   0.000000
     4  H    1.070000   2.152550   3.317797   0.000000
     5  H    3.313769   3.274621   1.070000   4.306181   0.000000
     6  C    5.026645   3.875582   5.753908   5.295900   6.554653
     7  N    3.934335   2.912931   4.240187   4.376410   4.894048
     8  H    4.025421   3.234991   4.756741   4.227201   5.481187
     9  O    5.582972   4.596254   6.532047   5.669842   7.345277
    10  C    3.758112   2.514809   4.236417   4.231834   5.021906
    11  H    4.075676   2.732978   4.029642   4.748212   4.686674
    12  C    2.575623   1.540000   3.724022   2.906430   4.705616
    13  H    3.076272   2.148263   4.202549   3.370131   5.184785
    14  H    2.744893   2.148263   4.354985   2.683016   5.365238
    15  N    2.268855   1.461658   1.296581   3.302100   2.099460
    16  N    1.473000   2.296456   1.480125   2.268545   2.267595
    17  H    2.052591   2.851454   2.058568   2.700830   2.699931
    18  N    5.940035   4.739539   6.533406   6.261656   7.303281
    19  H    6.599245   5.327175   6.911425   7.016541   7.575679
    20  C    6.830310   5.769173   7.745745   6.957976   8.587997
    21  H    7.596757   6.516711   8.410390   7.765590   9.223424
    22  H    7.379687   6.328413   8.309114   7.462709   9.131107
    23  H    6.408744   5.497019   7.604071   6.399357   8.525285
    24  C    5.337924   4.257167   5.266685   5.835178   5.723100
    25  C    6.075850   5.150063   5.620473   6.627911   5.831994
    26  H    5.770442   5.046897   5.417916   6.244058   5.624883
    27  H    7.082567   6.141422   6.689117   7.581641   6.885905
    28  H    6.182364   5.224926   5.331956   6.874966   5.379429
    29  O    6.174418   4.988185   6.189989   6.640741   6.680730
    30  H    3.227025   2.199941   2.047662   4.227974   2.494500
                    6          7          8          9         10
     6  C    0.000000
     7  N    2.457987   0.000000
     8  H    2.644813   1.000000   0.000000
     9  O    1.258400   2.750226   2.513556   0.000000
    10  C    1.540000   1.470000   2.034920   2.427572   0.000000
    11  H    2.148263   2.086720   2.911082   3.238764   1.070000
    12  C    2.514809   2.457987   2.644813   3.239097   1.540000
    13  H    2.732978   3.380966   3.619061   3.618293   2.148263
    14  H    2.732978   2.690081   2.459648   3.046900   2.148263
    15  N    4.513085   3.210077   3.844094   5.368886   3.002855
    16  N    6.164738   4.817019   5.075848   6.823075   4.751054
    17  H    6.682589   5.600342   5.890598   7.425317   5.327573
    18  N    1.470000   3.773947   4.096938   2.365231   2.606971
    19  H    2.034920   4.035547   4.480742   2.827328   3.047890
    20  C    2.400500   4.857724   4.933867   2.682602   3.788654
    21  H    3.331921   5.773500   5.935942   3.725875   4.619632
    22  H    2.628174   4.959942   4.921270   2.447081   4.156906
    23  H    2.628174   4.967395   4.907540   2.809346   3.866462
    24  C    2.852017   1.470000   2.034920   3.006564   2.400500
    25  C    4.391914   2.606971   3.047890   4.448396   3.788654
    26  H    4.846784   2.709173   2.914846   4.789090   4.101176
    27  H    4.855436   3.433431   3.735500   4.736987   4.544692
    28  H    4.861394   3.092577   3.752130   5.151803   4.079183
    29  O    2.486226   2.365231   2.827328   2.625022   2.682602
    30  H    4.292082   3.098894   3.925502   5.244366   2.834501
                   11         12         13         14         15
    11  H    0.000000
    12  C    2.148263   0.000000
    13  H    2.468846   1.070000   0.000000
    14  H    3.024610   1.070000   1.747303   0.000000
    15  N    2.737719   2.676373   3.168940   3.474671   0.000000
    16  N    4.805852   3.792218   4.211632   4.152777   2.283545
    17  H    5.298844   4.252116   4.441523   4.666273   2.837332
    18  N    2.709173   3.391691   3.146387   3.787952   5.253407
    19  H    2.914846   4.111665   3.953453   4.592105   5.615005
    20  C    4.101176   4.285743   3.931361   4.392059   6.500849
    21  H    4.750710   5.089594   4.581616   5.297551   7.161728
    22  H    4.577363   4.832388   4.673254   4.802908   7.060722
    23  H    4.341137   3.981296   3.547951   3.917028   6.428020
    24  C    2.628174   3.764412   4.539673   4.051448   4.235538
    25  C    3.866462   5.013372   5.869526   5.284562   4.837039
    26  H    4.341137   5.081198   6.044447   5.213548   4.812986
    27  H    4.647647   5.857801   6.677086   6.062653   5.881237
    28  H    3.882368   5.288573   6.077473   5.737969   4.616411
    29  O    2.809346   4.188400   4.746065   4.498328   5.038649
    30  H    2.255000   2.983798   3.402573   3.903941   1.000000
                   16         17         18         19         20
    16  N    0.000000
    17  H    1.000000   0.000000
    18  N    7.001463   7.363798   0.000000
    19  H    7.552547   7.943931   1.000000   0.000000
    20  C    8.028537   8.351474   1.470000   2.034920   0.000000
    21  H    8.731702   8.970973   2.086720   2.370879   1.070000
    22  H    8.615951   9.031067   2.086720   2.370879   1.070000
    23  H    7.690188   7.969219   2.086720   2.911082   1.070000
    24  C    6.073568   6.860275   3.951541   3.857586   5.062759
    25  C    6.556323   7.421228   5.448934   5.246404   6.568947
    26  H    6.218573   7.148865   6.064955   6.004466   7.129790
    27  H    7.614358   8.480909   5.827980   5.510225   6.831444
    28  H    6.451810   7.269150   5.760760   5.479558   7.014686
    29  O    6.999433   7.702471   3.264699   2.952639   4.292804
    30  H    3.248540   3.731459   4.899335   5.099021   6.258860
                   21         22         23         24         25
    21  H    0.000000
    22  H    1.747303   0.000000
    23  H    1.747303   1.747303   0.000000
    24  C    5.902800   4.966914   5.447944   0.000000
    25  C    7.381664   6.406017   6.980854   1.540000   0.000000
    26  H    8.017213   6.970085   7.408008   2.148263   1.070000
    27  H    7.615634   6.517294   7.333969   2.148263   1.070000
    28  H    7.741182   6.964782   7.473378   2.148263   1.070000
    29  O    5.045126   4.089841   4.875209   1.258400   2.427572
    30  H    6.855834   6.801953   6.348271   3.826131   4.404787
                   26         27         28         29         30
    26  H    0.000000
    27  H    1.747303   0.000000
    28  H    1.747303   1.747303   0.000000
    29  O    3.238764   2.584792   2.930080   0.000000
    30  H    4.578626   5.410681   4.044615   4.519943   0.000000
 Stoichiometry    C9H15N4O2(1+)
 Framework group  C1[X(C9H15N4O2)]
 Deg. of freedom    84
 Full point group                 C1      NOp   1
 Largest Abelian subgroup         C1      NOp   1
 Largest concise Abelian subgroup C1      NOp   1
                         Standard orientation:                         
 ---------------------------------------------------------------------
 Center     Atomic      Atomic             Coordinates (Angstroms)
 Number     Number       Type             X           Y           Z
 ---------------------------------------------------------------------
      1          6           0       -3.091937   -1.093529    0.901170
      2          6           0       -2.022738   -0.789838    0.140294
      3          6           0       -3.751073    0.291551   -0.795568
      4          1           0       -3.059596   -1.588480    1.849261
      5          1           0       -4.316599    1.020267   -1.337834
      6          6           0        1.850968   -0.682666    0.085056
      7          7           0        0.186524    1.057413    0.578466
      8          1           0        0.337041    0.910753    1.556134
      9          8           0        2.442262   -0.404328    1.160449
     10          6           0        0.405871   -0.202971   -0.145565
     11          1           0        0.244818   -0.046046   -1.191670
     12          6           0       -0.577640   -1.269533    0.370916
     13          1           0       -0.417980   -2.186955   -0.156100
     14          1           0       -0.416588   -1.426458    1.417021
     15          7           0       -2.476975    0.093565   -0.931952
     16          7           0       -4.312039   -0.627297    0.220210
     17          1           0       -4.787118   -1.390715   -0.217387
     18          7           0        2.539659   -1.465698   -0.951026
     19          1           0        3.021677   -0.846853   -1.571260
     20          6           0        3.505591   -2.374643   -0.317233
     21          1           0        4.006883   -2.944605   -1.071388
     22          1           0        4.223151   -1.804131    0.234604
     23          1           0        2.989832   -3.036807    0.346418
     24          6           0        1.125330    2.075494    0.085462
     25          6           0        0.728842    3.563421    0.107176
     26          1           0        0.057301    3.741749    0.920891
     27          1           0        1.605563    4.164398    0.230007
     28          1           0        0.248179    3.817935   -0.814282
     29          8           0        2.252987    1.731179   -0.354320
     30          1           0       -1.898029    0.491535   -1.643598
 ---------------------------------------------------------------------
 Rotational constants (GHZ):      0.8458063      0.3696114      0.2844461
 Leave Link  202 at Mon Apr  1 01:28:36 2013, MaxMem= 4294967296 cpu:      19.3
 (Enter /system/software/linux-x86_64/gaussian/g09/A.02__pgi_8.0-6__acml/l301.exe)
 Standard basis: CC-pVTZ (5D, 7F)
 Ernie: Thresh=  0.10000D-02 Tol=  0.10000D-05 Strict=F.
 Ernie:  45 primitive shells out of 510 were deleted.
 There are   660 symmetry adapted basis functions of A   symmetry.
 Integral buffers will be    131072 words long.
 Raffenetti 2 integral format.
 Two-electron integral symmetry is turned on.
   660 basis functions,  1035 primitive gaussians,   750 cartesian basis functions
    56 alpha electrons       56 beta electrons
       nuclear repulsion energy      1021.2781237656 Hartrees.
 IExCor= 4235 DFT=T Ex+Corr=M06 ExCW=0 ScaHFX=  0.270000
 ScaDFX=  1.000000  1.000000  1.000000  1.000000 ScalE2=  1.000000  1.000000
 IRadAn=      5 IRanWt=     -1 IRanGd=            0 ICorTp=0
 NAtoms=   30 NActive=   30 NUniq=   30 SFac= 7.50D-01 NAtFMM=   80 NAOKFM=F Big=F
 Leave Link  301 at Mon Apr  1 01:28:42 2013, MaxMem= 4294967296 cpu:      45.7
 (Enter /system/software/linux-x86_64/gaussian/g09/A.02__pgi_8.0-6__acml/l302.exe)
 NPDir=0 NMtPBC=     1 NCelOv=     1 NCel=       1 NClECP=     1 NCelD=      1
         NCelK=      1 NCelE2=     1 NClLst=     1 CellRange=     0.0.
 One-electron integrals computed using PRISM.
 NBasis=   660 RedAO= T  NBF=   660
 NBsUse=   660 1.00D-06 NBFU=   660
 Precomputing XC quadrature grid using
 IXCGrd= 2 IRadAn=           5 IRanWt=          -1 IRanGd=           0 AccXCQ= 1.00D-10.
 NRdTot=    2525 NPtTot=      680278 NUsed=      698356 NTot=      698388
 NSgBfM=   749   749   749   749   749 NAtAll=    30    30.
 Leave Link  302 at Mon Apr  1 01:28:50 2013, MaxMem= 4294967296 cpu:      44.7
 (Enter /system/software/linux-x86_64/gaussian/g09/A.02__pgi_8.0-6__acml/l303.exe)
 DipDrv:  MaxL=1.
 Leave Link  303 at Mon Apr  1 01:28:57 2013, MaxMem= 4294967296 cpu:       6.2
 (Enter /system/software/linux-x86_64/gaussian/g09/A.02__pgi_8.0-6__acml/l401.exe)
 Harris functional with IExCor= 1009 diagonalized for initial guess.
 ExpMin= 1.03D-01 ExpMax= 1.53D+04 ExpMxC= 5.22D+02 IAcc=3 IRadAn=         5 AccDes= 0.00D+00
 HarFok:  IExCor= 1009 AccDes= 0.00D+00 IRadAn=         5 IDoV= 1
 ScaDFX=  1.000000  1.000000  1.000000  1.000000
 FoFCou: FMM=F IPFlag=           0 FMFlag=      100000 FMFlg1=           0
         NFxFlg=           0 DoJE=T BraDBF=F KetDBF=T FulRan=T
         Omega=  0.000000  0.000000  1.000000  0.000000  0.000000 ICntrl=     500 IOpCl=  0
         NMat0=    1 NMatS0=    1 NMatT0=    0 NMatD0=    1 NMtDS0=    0 NMtDT0=    0
         I1Cent=           4 NGrid=           0.
 Petite list used in FoFCou.
 Harris En= -720.873608959763    
 Initial guess orbital symmetries:
       Occupied  (A) (A) (A) (A) (A) (A) (A) (A) (A) (A) (A) (A)
                 (A) (A) (A) (A) (A) (A) (A) (A) (A) (A) (A) (A)
                 (A) (A) (A) (A) (A) (A) (A) (A) (A) (A) (A) (A)
                 (A) (A) (A) (A) (A) (A) (A) (A) (A) (A) (A) (A)
                 (A) (A) (A) (A) (A) (A) (A) (A)
       Virtual   (A) (A) (A) (A) (A) (A) (A) (A) (A) (A) (A) (A)
                 (A) (A) (A) (A) (A) (A) (A) (A) (A) (A) (A) (A)
                 (A) (A) (A) (A) (A) (A) (A) (A) (A) (A) (A) (A)
                 (A) (A) (A) (A) (A) (A) (A) (A) (A) (A) (A) (A)
                 (A) (A) (A) (A) (A) (A) (A) (A) (A) (A) (A) (A)
                 (A) (A) (A) (A) (A) (A) (A) (A) (A) (A) (A) (A)
                 (A) (A) (A) (A) (A) (A) (A) (A) (A) (A) (A) (A)
                 (A) (A) (A) (A) (A) (A) (A) (A) (A) (A) (A) (A)
                 (A) (A) (A) (A) (A) (A) (A) (A) (A) (A) (A) (A)
                 (A) (A) (A) (A) (A) (A) (A) (A) (A) (A) (A) (A)
                 (A) (A) (A) (A) (A) (A) (A) (A) (A) (A) (A) (A)
                 (A) (A) (A) (A) (A) (A) (A) (A) (A) (A) (A) (A)
                 (A) (A) (A) (A) (A) (A) (A) (A) (A) (A) (A) (A)
                 (A) (A) (A) (A) (A) (A) (A) (A) (A) (A) (A) (A)
                 (A) (A) (A) (A) (A) (A) (A) (A) (A) (A) (A) (A)
                 (A) (A) (A) (A) (A) (A) (A) (A) (A) (A) (A) (A)
                 (A) (A) (A) (A) (A) (A) (A) (A) (A) (A) (A) (A)
                 (A) (A) (A) (A) (A) (A) (A) (A) (A) (A) (A) (A)
                 (A) (A) (A) (A) (A) (A) (A) (A) (A) (A) (A) (A)
                 (A) (A) (A) (A) (A) (A) (A) (A) (A) (A) (A) (A)
                 (A) (A) (A) (A) (A) (A) (A) (A) (A) (A) (A) (A)
                 (A) (A) (A) (A) (A) (A) (A) (A) (A) (A) (A) (A)
                 (A) (A) (A) (A) (A) (A) (A) (A) (A) (A) (A) (A)
                 (A) (A) (A) (A) (A) (A) (A) (A) (A) (A) (A) (A)
                 (A) (A) (A) (A) (A) (A) (A) (A) (A) (A) (A) (A)
                 (A) (A) (A) (A) (A) (A) (A) (A) (A) (A) (A) (A)
                 (A) (A) (A) (A) (A) (A) (A) (A) (A) (A) (A) (A)
                 (A) (A) (A) (A) (A) (A) (A) (A) (A) (A) (A) (A)
                 (A) (A) (A) (A) (A) (A) (A) (A) (A) (A) (A) (A)
                 (A) (A) (A) (A) (A) (A) (A) (A) (A) (A) (A) (A)
                 (A) (A) (A) (A) (A) (A) (A) (A) (A) (A) (A) (A)
                 (A) (A) (A) (A) (A) (A) (A) (A) (A) (A) (A) (A)
                 (A) (A) (A) (A) (A) (A) (A) (A) (A) (A) (A) (A)
                 (A) (A) (A) (A) (A) (A) (A) (A) (A) (A) (A) (A)
                 (A) (A) (A) (A) (A) (A) (A) (A) (A) (A) (A) (A)
                 (A) (A) (A) (A) (A) (A) (A) (A) (A) (A) (A) (A)
                 (A) (A) (A) (A) (A) (A) (A) (A) (A) (A) (A) (A)
                 (A) (A) (A) (A) (A) (A) (A) (A) (A) (A) (A) (A)
                 (A) (A) (A) (A) (A) (A) (A) (A) (A) (A) (A) (A)
                 (A) (A) (A) (A) (A) (A) (A) (A) (A) (A) (A) (A)
                 (A) (A) (A) (A) (A) (A) (A) (A) (A) (A) (A) (A)
                 (A) (A) (A) (A) (A) (A) (A) (A) (A) (A) (A) (A)
                 (A) (A) (A) (A) (A) (A) (A) (A) (A) (A) (A) (A)
                 (A) (A) (A) (A) (A) (A) (A) (A) (A) (A) (A) (A)
                 (A) (A) (A) (A) (A) (A) (A) (A) (A) (A) (A) (A)
                 (A) (A) (A) (A) (A) (A) (A) (A) (A) (A) (A) (A)
                 (A) (A) (A) (A) (A) (A) (A) (A) (A) (A) (A) (A)
                 (A) (A) (A) (A) (A) (A) (A) (A) (A) (A) (A) (A)
                 (A) (A) (A) (A) (A) (A) (A) (A) (A) (A) (A) (A)
                 (A) (A) (A) (A) (A) (A) (A) (A) (A) (A) (A) (A)
                 (A) (A) (A) (A)
 The electronic state of the initial guess is 1-A.
 Leave Link  401 at Mon Apr  1 01:29:10 2013, MaxMem= 4294967296 cpu:     130.2
 (Enter /system/software/linux-x86_64/gaussian/g09/A.02__pgi_8.0-6__acml/l502.exe)
 Closed shell SCF:
 Requested convergence on RMS density matrix=1.00D-08 within 128 cycles.
 Requested convergence on MAX density matrix=1.00D-06.
 Requested convergence on             energy=1.00D-06.
 No special actions if energy rises.
 Using DIIS extrapolation, IDIIS=  1040.
 Integral symmetry usage will be decided dynamically.
       698073 words used for storage of precomputed grid.
 IEnd=     2421179 IEndB=     2421179 NGot=  4294967296 MDV=  4293126008
 LenX=  4293126008 LenY=  4292562758
 Fock matrices will be formed incrementally for  20 cycles.
 Integral accuracy reduced to 1.0D-05 until final iterations.

 Cycle   1  Pass 0  IDiag  1:
 FoFCou: FMM=F IPFlag=           0 FMFlag=      100000 FMFlg1=           0
         NFxFlg=           0 DoJE=F BraDBF=F KetDBF=F FulRan=T
         Omega=  0.000000  0.000000  1.000000  0.000000  0.000000 ICntrl=       0 IOpCl=  0
         NMat0=    1 NMatS0=    1 NMatT0=    0 NMatD0=    1 NMtDS0=    0 NMtDT0=    0
         I1Cent=           0 NGrid=           0.
 Symmetry not used in FoFCou.
 E= -720.549585588618    
 DIIS: error= 1.86D-02 at cycle   1 NSaved=   1.
 NSaved= 1 IEnMin= 1 EnMin= -720.549585588618     IErMin= 1 ErrMin= 1.86D-02
 ErrMax= 1.86D-02 EMaxC= 1.00D-01 BMatC= 3.89D-01 BMatP= 3.89D-01
 IDIUse=3 WtCom= 8.14D-01 WtEn= 1.86D-01
 Coeff-Com:  0.100D+01
 Coeff-En:   0.100D+01
 Coeff:      0.100D+01
 Gap=     0.153 Goal=   None    Shift=    0.000
 GapD=    0.153 DampG=1.000 DampE=0.500 DampFc=0.5000 IDamp=-1.
 Damping current iteration by 5.00D-01
 RMSDP=2.49D-03 MaxDP=1.47D-01              OVMax= 9.27D-01

 Cycle   2  Pass 0  IDiag  1:
 RMSU=  8.79D-04    CP:  9.92D-01
 E= -720.202677036051     Delta-E=        0.346908552567 Rises=F Damp=T
 DIIS: error= 1.37D-02 at cycle   2 NSaved=   2.
 NSaved= 2 IEnMin= 1 EnMin= -720.549585588618     IErMin= 2 ErrMin= 1.37D-02
 ErrMax= 1.37D-02 EMaxC= 1.00D-01 BMatC= 2.43D-01 BMatP= 3.89D-01
 IDIUse=3 WtCom= 8.63D-01 WtEn= 1.37D-01
 Coeff-Com:  0.417D+00 0.583D+00
 Coeff-En:   0.730D+00 0.270D+00
 Coeff:      0.460D+00 0.540D+00
 Gap=    -0.089 Goal=   None    Shift=    0.000
 RMSDP=1.22D-03 MaxDP=7.42D-02 DE= 3.47D-01 OVMax= 5.48D-01

 Cycle   3  Pass 0  IDiag  1:
 RMSU=  7.10D-04    CP:  1.00D+00  4.41D-01
 E= -720.635266026094     Delta-E=       -0.432588990043 Rises=F Damp=F
 DIIS: error= 1.28D-02 at cycle   3 NSaved=   3.
 NSaved= 3 IEnMin= 3 EnMin= -720.635266026094     IErMin= 3 ErrMin= 1.28D-02
 ErrMax= 1.28D-02 EMaxC= 1.00D-01 BMatC= 2.61D-01 BMatP= 2.43D-01
 IDIUse=3 WtCom= 8.72D-01 WtEn= 1.28D-01
 EnCoef did     2 forward-backward iterations
 Coeff-Com:  0.194D+00 0.435D+00 0.371D+00
 Coeff-En:   0.221D+00 0.201D+00 0.578D+00
 Coeff:      0.198D+00 0.405D+00 0.397D+00
 Gap=     0.242 Goal=   None    Shift=    0.000
 RMSDP=5.52D-04 MaxDP=2.98D-02 DE=-4.33D-01 OVMax= 9.86D-02

 Cycle   4  Pass 0  IDiag  1:
 RMSU=  2.98D-04    CP:  1.00D+00  4.23D-01  6.45D-01
 E= -720.863595830728     Delta-E=       -0.228329804634 Rises=F Damp=F
 DIIS: error= 3.05D-03 at cycle   4 NSaved=   4.
 NSaved= 4 IEnMin= 4 EnMin= -720.863595830728     IErMin= 4 ErrMin= 3.05D-03
 ErrMax= 3.05D-03 EMaxC= 1.00D-01 BMatC= 1.81D-02 BMatP= 2.43D-01
 IDIUse=3 WtCom= 9.70D-01 WtEn= 3.05D-02
 Coeff-Com:  0.149D-01 0.226D+00 0.608D-01 0.698D+00
 Coeff-En:   0.000D+00 0.000D+00 0.000D+00 0.100D+01
 Coeff:      0.144D-01 0.219D+00 0.590D-01 0.707D+00
 Gap=     0.137 Goal=   None    Shift=    0.000
 RMSDP=2.11D-04 MaxDP=1.04D-02 DE=-2.28D-01 OVMax= 2.70D-02

 Cycle   5  Pass 0  IDiag  1:
 RMSU=  1.26D-04    CP:  1.00D+00  4.66D-01  5.89D-01  1.19D+00
 E= -720.874407679480     Delta-E=       -0.010811848752 Rises=F Damp=F
 DIIS: error= 3.39D-03 at cycle   5 NSaved=   5.
 NSaved= 5 IEnMin= 5 EnMin= -720.874407679480     IErMin= 4 ErrMin= 3.05D-03
 ErrMax= 3.39D-03 EMaxC= 1.00D-01 BMatC= 1.22D-02 BMatP= 1.81D-02
 IDIUse=3 WtCom= 9.66D-01 WtEn= 3.39D-02
 Coeff-Com: -0.432D-01 0.110D+00-0.894D-01 0.474D+00 0.548D+00
 Coeff-En:   0.000D+00 0.000D+00 0.000D+00 0.000D+00 0.100D+01
 Coeff:     -0.417D-01 0.106D+00-0.863D-01 0.458D+00 0.563D+00
 Gap=     0.123 Goal=   None    Shift=    0.000
 RMSDP=1.34D-04 MaxDP=8.80D-03 DE=-1.08D-02 OVMax= 2.06D-02

 Cycle   6  Pass 0  IDiag  1:
 RMSU=  6.39D-05    CP:  1.00D+00  4.91D-01  5.53D-01  1.39D+00  1.05D+00
 E= -720.883573122422     Delta-E=       -0.009165442942 Rises=F Damp=F
 DIIS: error= 1.06D-03 at cycle   6 NSaved=   6.
 NSaved= 6 IEnMin= 6 EnMin= -720.883573122422     IErMin= 6 ErrMin= 1.06D-03
 ErrMax= 1.06D-03 EMaxC= 1.00D-01 BMatC= 1.60D-03 BMatP= 1.22D-02
 IDIUse=3 WtCom= 9.89D-01 WtEn= 1.06D-02
 Coeff-Com: -0.275D-01 0.345D-01-0.750D-01 0.583D-01 0.297D+00 0.713D+00
 Coeff-En:   0.000D+00 0.000D+00 0.000D+00 0.000D+00 0.000D+00 0.100D+01
 Coeff:     -0.272D-01 0.342D-01-0.742D-01 0.576D-01 0.293D+00 0.716D+00
 Gap=     0.112 Goal=   None    Shift=    0.000
 RMSDP=7.60D-05 MaxDP=3.64D-03 DE=-9.17D-03 OVMax= 9.63D-03

 Cycle   7  Pass 0  IDiag  1:
 RMSU=  2.70D-05    CP:  1.00D+00  5.08D-01  5.28D-01  1.49D+00  1.28D+00
                    CP:  1.13D+00
 E= -720.885088410844     Delta-E=       -0.001515288422 Rises=F Damp=F
 DIIS: error= 3.52D-04 at cycle   7 NSaved=   7.
 NSaved= 7 IEnMin= 7 EnMin= -720.885088410844     IErMin= 7 ErrMin= 3.52D-04
 ErrMax= 3.52D-04 EMaxC= 1.00D-01 BMatC= 2.82D-04 BMatP= 1.60D-03
 IDIUse=3 WtCom= 9.96D-01 WtEn= 3.52D-03
 Coeff-Com: -0.813D-02 0.364D-02-0.309D-01-0.687D-01 0.520D-01 0.436D+00
 Coeff-Com:  0.616D+00
 Coeff-En:   0.000D+00 0.000D+00 0.000D+00 0.000D+00 0.000D+00 0.000D+00
 Coeff-En:   0.100D+01
 Coeff:     -0.810D-02 0.363D-02-0.308D-01-0.684D-01 0.518D-01 0.435D+00
 Coeff:      0.617D+00
 Gap=     0.107 Goal=   None    Shift=    0.000
 RMSDP=3.50D-05 MaxDP=1.49D-03 DE=-1.52D-03 OVMax= 4.49D-03

 Cycle   8  Pass 0  IDiag  1:
 RMSU=  1.07D-05    CP:  1.00D+00  5.13D-01  5.17D-01  1.52D+00  1.38D+00
                    CP:  1.32D+00  9.16D-01
 E= -720.885337628302     Delta-E=       -0.000249217458 Rises=F Damp=F
 DIIS: error= 1.33D-04 at cycle   8 NSaved=   8.
 NSaved= 8 IEnMin= 8 EnMin= -720.885337628302     IErMin= 8 ErrMin= 1.33D-04
 ErrMax= 1.33D-04 EMaxC= 1.00D-01 BMatC= 2.58D-05 BMatP= 2.82D-04
 IDIUse=3 WtCom= 9.99D-01 WtEn= 1.33D-03
 Coeff-Com:  0.801D-04 0.191D-02-0.269D-02-0.320D-01-0.138D-01 0.924D-01
 Coeff-Com:  0.321D+00 0.634D+00
 Coeff-En:   0.000D+00 0.000D+00 0.000D+00 0.000D+00 0.000D+00 0.000D+00
 Coeff-En:   0.000D+00 0.100D+01
 Coeff:      0.800D-04 0.191D-02-0.269D-02-0.320D-01-0.138D-01 0.923D-01
 Coeff:      0.320D+00 0.634D+00
 Gap=     0.109 Goal=   None    Shift=    0.000
 RMSDP=6.46D-06 MaxDP=4.01D-04 DE=-2.49D-04 OVMax= 1.33D-03

 Initial convergence to 1.0D-05 achieved.  Increase integral accuracy.
 Cycle   9  Pass 1  IDiag  1:
 E= -720.885352426095     Delta-E=       -0.000014797793 Rises=F Damp=F
 DIIS: error= 5.05D-05 at cycle   1 NSaved=   1.
 NSaved= 1 IEnMin= 1 EnMin= -720.885352426095     IErMin= 1 ErrMin= 5.05D-05
 ErrMax= 5.05D-05 EMaxC= 1.00D-01 BMatC= 5.42D-06 BMatP= 5.42D-06
 IDIUse=1 WtCom= 1.00D+00 WtEn= 0.00D+00
 Coeff-Com:  0.100D+01
 Coeff:      0.100D+01
 Gap=     0.107 Goal=   None    Shift=    0.000
 RMSDP=6.46D-06 MaxDP=4.01D-04 DE=-1.48D-05 OVMax= 1.93D-03

 Cycle  10  Pass 1  IDiag  1:
 RMSU=  1.41D-05    CP:  1.00D+00
 E= -720.885348718473     Delta-E=        0.000003707622 Rises=F Damp=F
 DIIS: error= 8.39D-05 at cycle   2 NSaved=   2.
 NSaved= 2 IEnMin= 1 EnMin= -720.885352426095     IErMin= 1 ErrMin= 5.05D-05
 ErrMax= 8.39D-05 EMaxC= 1.00D-01 BMatC= 9.54D-06 BMatP= 5.42D-06
 IDIUse=1 WtCom= 1.00D+00 WtEn= 0.00D+00
 Coeff-Com:  0.579D+00 0.421D+00
 Coeff:      0.579D+00 0.421D+00
 Gap=     0.108 Goal=   None    Shift=    0.000
 RMSDP=3.48D-06 MaxDP=2.11D-04 DE= 3.71D-06 OVMax= 1.19D-03

 Cycle  11  Pass 1  IDiag  1:
 RMSU=  2.42D-06    CP:  1.00D+00  9.67D-01
 E= -720.885356741310     Delta-E=       -0.000008022836 Rises=F Damp=F
 DIIS: error= 1.95D-05 at cycle   3 NSaved=   3.
 NSaved= 3 IEnMin= 3 EnMin= -720.885356741310     IErMin= 3 ErrMin= 1.95D-05
 ErrMax= 1.95D-05 EMaxC= 1.00D-01 BMatC= 6.05D-07 BMatP= 5.42D-06
 IDIUse=1 WtCom= 1.00D+00 WtEn= 0.00D+00
 Coeff-Com:  0.143D+00 0.214D+00 0.643D+00
 Coeff:      0.143D+00 0.214D+00 0.643D+00
 Gap=     0.108 Goal=   None    Shift=    0.000
 RMSDP=1.29D-06 MaxDP=8.45D-05 DE=-8.02D-06 OVMax= 2.58D-04

 Cycle  12  Pass 1  IDiag  1:
 RMSU=  8.67D-07    CP:  1.00D+00  9.82D-01  9.33D-01
 E= -720.885357065748     Delta-E=       -0.000000324438 Rises=F Damp=F
 DIIS: error= 8.89D-06 at cycle   4 NSaved=   4.
 NSaved= 4 IEnMin= 4 EnMin= -720.885357065748     IErMin= 4 ErrMin= 8.89D-06
 ErrMax= 8.89D-06 EMaxC= 1.00D-01 BMatC= 1.96D-07 BMatP= 6.05D-07
 IDIUse=1 WtCom= 1.00D+00 WtEn= 0.00D+00
 Coeff-Com:  0.298D-02 0.726D-01 0.420D+00 0.504D+00
 Coeff:      0.298D-02 0.726D-01 0.420D+00 0.504D+00
 Gap=     0.108 Goal=   None    Shift=    0.000
 RMSDP=5.22D-07 MaxDP=3.22D-05 DE=-3.24D-07 OVMax= 1.02D-04

 Cycle  13  Pass 1  IDiag  1:
 RMSU=  2.16D-07    CP:  1.00D+00  9.89D-01  9.18D-01  6.75D-01
 E= -720.885357213078     Delta-E=       -0.000000147330 Rises=F Damp=F
 DIIS: error= 2.34D-06 at cycle   5 NSaved=   5.
 NSaved= 5 IEnMin= 5 EnMin= -720.885357213078     IErMin= 5 ErrMin= 2.34D-06
 ErrMax= 2.34D-06 EMaxC= 1.00D-01 BMatC= 1.19D-08 BMatP= 1.96D-07
 IDIUse=1 WtCom= 1.00D+00 WtEn= 0.00D+00
 Coeff-Com: -0.644D-02 0.320D-01 0.222D+00 0.305D+00 0.447D+00
 Coeff:     -0.644D-02 0.320D-01 0.222D+00 0.305D+00 0.447D+00
 Gap=     0.108 Goal=   None    Shift=    0.000
 RMSDP=1.30D-07 MaxDP=8.41D-06 DE=-1.47D-07 OVMax= 3.50D-05

 Cycle  14  Pass 1  IDiag  1:
 RMSU=  8.14D-08    CP:  1.00D+00  9.90D-01  9.23D-01  6.71D-01  8.34D-01
 E= -720.885357223077     Delta-E=       -0.000000009999 Rises=F Damp=F
 DIIS: error= 4.29D-07 at cycle   6 NSaved=   6.
 NSaved= 6 IEnMin= 6 EnMin= -720.885357223077     IErMin= 6 ErrMin= 4.29D-07
 ErrMax= 4.29D-07 EMaxC= 1.00D-01 BMatC= 4.76D-10 BMatP= 1.19D-08
 IDIUse=1 WtCom= 1.00D+00 WtEn= 0.00D+00
 Coeff-Com: -0.316D-02 0.381D-02 0.434D-01 0.656D-01 0.170D+00 0.720D+00
 Coeff:     -0.316D-02 0.381D-02 0.434D-01 0.656D-01 0.170D+00 0.720D+00
 Gap=     0.108 Goal=   None    Shift=    0.000
 RMSDP=4.44D-08 MaxDP=2.33D-06 DE=-1.00D-08 OVMax= 1.59D-05

 Cycle  15  Pass 1  IDiag  1:
 RMSU=  2.54D-08    CP:  1.00D+00  9.90D-01  9.25D-01  6.78D-01  9.07D-01
                    CP:  1.01D+00
 E= -720.885357223348     Delta-E=       -0.000000000271 Rises=F Damp=F
 DIIS: error= 4.31D-07 at cycle   7 NSaved=   7.
 NSaved= 7 IEnMin= 7 EnMin= -720.885357223348     IErMin= 6 ErrMin= 4.29D-07
 ErrMax= 4.31D-07 EMaxC= 1.00D-01 BMatC= 2.64D-10 BMatP= 4.76D-10
 IDIUse=1 WtCom= 1.00D+00 WtEn= 0.00D+00
 Coeff-Com: -0.775D-03-0.344D-02-0.114D-01-0.115D-01 0.154D-01 0.461D+00
 Coeff-Com:  0.551D+00
 Coeff:     -0.775D-03-0.344D-02-0.114D-01-0.115D-01 0.154D-01 0.461D+00
 Coeff:      0.551D+00
 Gap=     0.108 Goal=   None    Shift=    0.000
 RMSDP=2.11D-08 MaxDP=1.19D-06 DE=-2.71D-10 OVMax= 6.12D-06

 Cycle  16  Pass 1  IDiag  1:
 RMSU=  1.03D-08    CP:  1.00D+00  9.91D-01  9.25D-01  6.83D-01  9.27D-01
                    CP:  1.07D+00  7.17D-01
 E= -720.885357223600     Delta-E=       -0.000000000252 Rises=F Damp=F
 DIIS: error= 1.86D-07 at cycle   8 NSaved=   8.
 NSaved= 8 IEnMin= 8 EnMin= -720.885357223600     IErMin= 8 ErrMin= 1.86D-07
 ErrMax= 1.86D-07 EMaxC= 1.00D-01 BMatC= 2.28D-11 BMatP= 2.64D-10
 IDIUse=1 WtCom= 1.00D+00 WtEn= 0.00D+00
 Coeff-Com: -0.662D-04-0.250D-02-0.115D-01-0.135D-01-0.174D-01 0.175D+00
 Coeff-Com:  0.296D+00 0.574D+00
 Coeff:     -0.662D-04-0.250D-02-0.115D-01-0.135D-01-0.174D-01 0.175D+00
 Coeff:      0.296D+00 0.574D+00
 Gap=     0.108 Goal=   None    Shift=    0.000
 RMSDP=6.38D-09 MaxDP=4.05D-07 DE=-2.52D-10 OVMax= 1.45D-06

 SCF Done:  E(RM06) =  -720.885357224     A.U. after   16 cycles
             Convg  =    0.6385D-08             -V/T =  2.0083
 KE= 7.149665330691D+02 PE=-3.706938486095D+03 EE= 1.249808472037D+03
 Leave Link  502 at Mon Apr  1 01:52:52 2013, MaxMem= 4294967296 cpu:   22429.9
 (Enter /system/software/linux-x86_64/gaussian/g09/A.02__pgi_8.0-6__acml/l601.exe)
 Copying SCF densities to generalized density rwf, IOpCl= 0 IROHF=0.

 **********************************************************************

            Population analysis using the SCF density.

 **********************************************************************

 Orbital symmetries:
       Occupied  (A) (A) (A) (A) (A) (A) (A) (A) (A) (A) (A) (A)
                 (A) (A) (A) (A) (A) (A) (A) (A) (A) (A) (A) (A)
                 (A) (A) (A) (A) (A) (A) (A) (A) (A) (A) (A) (A)
                 (A) (A) (A) (A) (A) (A) (A) (A) (A) (A) (A) (A)
                 (A) (A) (A) (A) (A) (A) (A) (A)
       Virtual   (A) (A) (A) (A) (A) (A) (A) (A) (A) (A) (A) (A)
                 (A) (A) (A) (A) (A) (A) (A) (A) (A) (A) (A) (A)
                 (A) (A) (A) (A) (A) (A) (A) (A) (A) (A) (A) (A)
                 (A) (A) (A) (A) (A) (A) (A) (A) (A) (A) (A) (A)
                 (A) (A) (A) (A) (A) (A) (A) (A) (A) (A) (A) (A)
                 (A) (A) (A) (A) (A) (A) (A) (A) (A) (A) (A) (A)
                 (A) (A) (A) (A) (A) (A) (A) (A) (A) (A) (A) (A)
                 (A) (A) (A) (A) (A) (A) (A) (A) (A) (A) (A) (A)
                 (A) (A) (A) (A) (A) (A) (A) (A) (A) (A) (A) (A)
                 (A) (A) (A) (A) (A) (A) (A) (A) (A) (A) (A) (A)
                 (A) (A) (A) (A) (A) (A) (A) (A) (A) (A) (A) (A)
                 (A) (A) (A) (A) (A) (A) (A) (A) (A) (A) (A) (A)
                 (A) (A) (A) (A) (A) (A) (A) (A) (A) (A) (A) (A)
                 (A) (A) (A) (A) (A) (A) (A) (A) (A) (A) (A) (A)
                 (A) (A) (A) (A) (A) (A) (A) (A) (A) (A) (A) (A)
                 (A) (A) (A) (A) (A) (A) (A) (A) (A) (A) (A) (A)
                 (A) (A) (A) (A) (A) (A) (A) (A) (A) (A) (A) (A)
                 (A) (A) (A) (A) (A) (A) (A) (A) (A) (A) (A) (A)
                 (A) (A) (A) (A) (A) (A) (A) (A) (A) (A) (A) (A)
                 (A) (A) (A) (A) (A) (A) (A) (A) (A) (A) (A) (A)
                 (A) (A) (A) (A) (A) (A) (A) (A) (A) (A) (A) (A)
                 (A) (A) (A) (A) (A) (A) (A) (A) (A) (A) (A) (A)
                 (A) (A) (A) (A) (A) (A) (A) (A) (A) (A) (A) (A)
                 (A) (A) (A) (A) (A) (A) (A) (A) (A) (A) (A) (A)
                 (A) (A) (A) (A) (A) (A) (A) (A) (A) (A) (A) (A)
                 (A) (A) (A) (A) (A) (A) (A) (A) (A) (A) (A) (A)
                 (A) (A) (A) (A) (A) (A) (A) (A) (A) (A) (A) (A)
                 (A) (A) (A) (A) (A) (A) (A) (A) (A) (A) (A) (A)
                 (A) (A) (A) (A) (A) (A) (A) (A) (A) (A) (A) (A)
                 (A) (A) (A) (A) (A) (A) (A) (A) (A) (A) (A) (A)
                 (A) (A) (A) (A) (A) (A) (A) (A) (A) (A) (A) (A)
                 (A) (A) (A) (A) (A) (A) (A) (A) (A) (A) (A) (A)
                 (A) (A) (A) (A) (A) (A) (A) (A) (A) (A) (A) (A)
                 (A) (A) (A) (A) (A) (A) (A) (A) (A) (A) (A) (A)
                 (A) (A) (A) (A) (A) (A) (A) (A) (A) (A) (A) (A)
                 (A) (A) (A) (A) (A) (A) (A) (A) (A) (A) (A) (A)
                 (A) (A) (A) (A) (A) (A) (A) (A) (A) (A) (A) (A)
                 (A) (A) (A) (A) (A) (A) (A) (A) (A) (A) (A) (A)
                 (A) (A) (A) (A) (A) (A) (A) (A) (A) (A) (A) (A)
                 (A) (A) (A) (A) (A) (A) (A) (A) (A) (A) (A) (A)
                 (A) (A) (A) (A) (A) (A) (A) (A) (A) (A) (A) (A)
                 (A) (A) (A) (A) (A) (A) (A) (A) (A) (A) (A) (A)
                 (A) (A) (A) (A) (A) (A) (A) (A) (A) (A) (A) (A)
                 (A) (A) (A) (A) (A) (A) (A) (A) (A) (A) (A) (A)
                 (A) (A) (A) (A) (A) (A) (A) (A) (A) (A) (A) (A)
                 (A) (A) (A) (A) (A) (A) (A) (A) (A) (A) (A) (A)
                 (A) (A) (A) (A) (A) (A) (A) (A) (A) (A) (A) (A)
                 (A) (A) (A) (A) (A) (A) (A) (A) (A) (A) (A) (A)
                 (A) (A) (A) (A) (A) (A) (A) (A) (A) (A) (A) (A)
                 (A) (A) (A) (A) (A) (A) (A) (A) (A) (A) (A) (A)
                 (A) (A) (A) (A)
 The electronic state is 1-A.
 Alpha  occ. eigenvalues --  -19.32411 -19.30765 -14.68432 -14.63701 -14.53503
 Alpha  occ. eigenvalues --  -14.49672 -10.55627 -10.49023 -10.48490 -10.46877
 Alpha  occ. eigenvalues --  -10.46874 -10.43333 -10.42209 -10.35226 -10.33622
 Alpha  occ. eigenvalues --   -1.24464  -1.17595  -1.14923  -1.11515  -1.06067
 Alpha  occ. eigenvalues --   -1.01135  -0.99048  -0.92090  -0.87477  -0.86669
 Alpha  occ. eigenvalues --   -0.82505  -0.81354  -0.77482  -0.75519  -0.71901
 Alpha  occ. eigenvalues --   -0.70967  -0.69609  -0.66536  -0.64817  -0.64004
 Alpha  occ. eigenvalues --   -0.63726  -0.62403  -0.61674  -0.59495  -0.57807
 Alpha  occ. eigenvalues --   -0.56677  -0.56225  -0.55678  -0.54435  -0.53112
 Alpha  occ. eigenvalues --   -0.51711  -0.51637  -0.50926  -0.49356  -0.48548
 Alpha  occ. eigenvalues --   -0.47030  -0.45216  -0.41929  -0.39414  -0.38359
 Alpha  occ. eigenvalues --   -0.36161
 Alpha virt. eigenvalues --   -0.25355  -0.16714  -0.14697  -0.13847  -0.12544
 Alpha virt. eigenvalues --   -0.11658  -0.10396  -0.09485  -0.06763  -0.06015
 Alpha virt. eigenvalues --   -0.05785  -0.03947  -0.03436  -0.02501  -0.02092
 Alpha virt. eigenvalues --   -0.00984   0.00000   0.00485   0.01028   0.01381
 Alpha virt. eigenvalues --    0.01684   0.03223   0.04259   0.05274   0.05511
 Alpha virt. eigenvalues --    0.06845   0.07639   0.08359   0.09450   0.09780
 Alpha virt. eigenvalues --    0.10680   0.11133   0.13263   0.13541   0.14094
 Alpha virt. eigenvalues --    0.15360   0.15480   0.15865   0.16878   0.17169
 Alpha virt. eigenvalues --    0.18372   0.18520   0.19000   0.19583   0.20293
 Alpha virt. eigenvalues --    0.20530   0.21818   0.22229   0.22364   0.22898
 Alpha virt. eigenvalues --    0.24340   0.25383   0.26364   0.26799   0.27076
 Alpha virt. eigenvalues --    0.27798   0.28230   0.28770   0.29439   0.29583
 Alpha virt. eigenvalues --    0.30110   0.31104   0.31350   0.32298   0.32834
 Alpha virt. eigenvalues --    0.32998   0.33276   0.34024   0.34268   0.34442
 Alpha virt. eigenvalues --    0.35260   0.36202   0.36718   0.37061   0.37627
 Alpha virt. eigenvalues --    0.38403   0.38860   0.39445   0.40203   0.41031
 Alpha virt. eigenvalues --    0.42015   0.43258   0.44110   0.44633   0.45932
 Alpha virt. eigenvalues --    0.46357   0.46807   0.47444   0.47999   0.49295
 Alpha virt. eigenvalues --    0.51019   0.52082   0.52579   0.54237   0.54495
 Alpha virt. eigenvalues --    0.55297   0.56590   0.58108   0.58602   0.59993
 Alpha virt. eigenvalues --    0.61650   0.63120   0.63669   0.64276   0.65139
 Alpha virt. eigenvalues --    0.66343   0.66669   0.67719   0.69704   0.70270
 Alpha virt. eigenvalues --    0.71057   0.72006   0.72689   0.74020   0.74292
 Alpha virt. eigenvalues --    0.75237   0.76791   0.76946   0.77309   0.78166
 Alpha virt. eigenvalues --    0.78562   0.79951   0.80507   0.80707   0.81596
 Alpha virt. eigenvalues --    0.81917   0.83609   0.84569   0.85466   0.86206
 Alpha virt. eigenvalues --    0.86796   0.88088   0.88635   0.89075   0.90713
 Alpha virt. eigenvalues --    0.91360   0.92476   0.92848   0.93763   0.94357
 Alpha virt. eigenvalues --    0.95334   0.96438   0.97558   0.98398   0.98491
 Alpha virt. eigenvalues --    0.99301   1.00203   1.00604   1.01504   1.02616
 Alpha virt. eigenvalues --    1.03104   1.04020   1.04465   1.05570   1.07086
 Alpha virt. eigenvalues --    1.08143   1.08266   1.09084   1.10331   1.11048
 Alpha virt. eigenvalues --    1.12408   1.12915   1.13475   1.14493   1.14640
 Alpha virt. eigenvalues --    1.15572   1.16930   1.16972   1.18150   1.19140
 Alpha virt. eigenvalues --    1.20041   1.20826   1.21375   1.21823   1.23029
 Alpha virt. eigenvalues --    1.23521   1.24281   1.24973   1.25329   1.26919
 Alpha virt. eigenvalues --    1.28530   1.28962   1.30501   1.31996   1.33653
 Alpha virt. eigenvalues --    1.35651   1.36115   1.36819   1.38289   1.39132
 Alpha virt. eigenvalues --    1.40244   1.40979   1.42990   1.43443   1.44048
 Alpha virt. eigenvalues --    1.45001   1.46034   1.47641   1.49363   1.49968
 Alpha virt. eigenvalues --    1.51547   1.52732   1.54059   1.54495   1.56523
 Alpha virt. eigenvalues --    1.57115   1.59027   1.60836   1.62146   1.62868
 Alpha virt. eigenvalues --    1.64804   1.66347   1.69293   1.69470   1.72326
 Alpha virt. eigenvalues --    1.73561   1.75295   1.78032   1.79345   1.81225
 Alpha virt. eigenvalues --    1.82781   1.84919   1.89387   1.90292   1.91264
 Alpha virt. eigenvalues --    1.97371   1.98665   2.01163   2.03928   2.04583
 Alpha virt. eigenvalues --    2.07000   2.08456   2.09598   2.10464   2.10556
 Alpha virt. eigenvalues --    2.12567   2.15593   2.16125   2.16566   2.18173
 Alpha virt. eigenvalues --    2.20677   2.21766   2.22351   2.25293   2.25880
 Alpha virt. eigenvalues --    2.27681   2.28208   2.28950   2.30806   2.33480
 Alpha virt. eigenvalues --    2.36133   2.36734   2.36819   2.38370   2.38938
 Alpha virt. eigenvalues --    2.40307   2.41030   2.43043   2.44073   2.44547
 Alpha virt. eigenvalues --    2.47419   2.47972   2.49767   2.50471   2.51440
 Alpha virt. eigenvalues --    2.52007   2.53693   2.54484   2.55219   2.56020
 Alpha virt. eigenvalues --    2.57774   2.58431   2.59671   2.60536   2.60813
 Alpha virt. eigenvalues --    2.61348   2.62062   2.62211   2.62666   2.63692
 Alpha virt. eigenvalues --    2.64606   2.65145   2.66576   2.67872   2.69165
 Alpha virt. eigenvalues --    2.69820   2.70656   2.70782   2.71756   2.72662
 Alpha virt. eigenvalues --    2.72766   2.74759   2.75500   2.76521   2.77017
 Alpha virt. eigenvalues --    2.77566   2.78374   2.79527   2.80300   2.81100
 Alpha virt. eigenvalues --    2.81394   2.82288   2.82768   2.83276   2.85170
 Alpha virt. eigenvalues --    2.85928   2.87064   2.87968   2.88566   2.89576
 Alpha virt. eigenvalues --    2.89969   2.90721   2.90815   2.92364   2.92945
 Alpha virt. eigenvalues --    2.93991   2.94604   2.94900   2.95709   2.95933
 Alpha virt. eigenvalues --    2.97270   2.97742   2.97823   2.98567   2.99773
 Alpha virt. eigenvalues --    3.01161   3.01302   3.02593   3.03325   3.04448
 Alpha virt. eigenvalues --    3.05856   3.06023   3.06610   3.08355   3.09398
 Alpha virt. eigenvalues --    3.11633   3.12346   3.13096   3.13742   3.14442
 Alpha virt. eigenvalues --    3.15317   3.15965   3.16932   3.17909   3.18818
 Alpha virt. eigenvalues --    3.19894   3.21188   3.21794   3.22928   3.23662
 Alpha virt. eigenvalues --    3.24117   3.24965   3.25280   3.25749   3.26630
 Alpha virt. eigenvalues --    3.27441   3.28307   3.28459   3.30279   3.30789
 Alpha virt. eigenvalues --    3.31618   3.33673   3.34234   3.34690   3.36198
 Alpha virt. eigenvalues --    3.36699   3.36919   3.37217   3.38695   3.39878
 Alpha virt. eigenvalues --    3.40804   3.41202   3.42857   3.45563   3.46516
 Alpha virt. eigenvalues --    3.47878   3.48549   3.49051   3.50404   3.50956
 Alpha virt. eigenvalues --    3.52069   3.52813   3.53141   3.54273   3.54971
 Alpha virt. eigenvalues --    3.56796   3.57993   3.58794   3.59961   3.60409
 Alpha virt. eigenvalues --    3.61228   3.62273   3.63825   3.64879   3.66107
 Alpha virt. eigenvalues --    3.66887   3.67316   3.68568   3.68953   3.69604
 Alpha virt. eigenvalues --    3.70596   3.71947   3.72133   3.72834   3.74339
 Alpha virt. eigenvalues --    3.74736   3.75461   3.76820   3.78072   3.79150
 Alpha virt. eigenvalues --    3.80938   3.81542   3.81636   3.83585   3.83895
 Alpha virt. eigenvalues --    3.84744   3.85695   3.86708   3.88130   3.89129
 Alpha virt. eigenvalues --    3.89409   3.90437   3.92171   3.92753   3.93455
 Alpha virt. eigenvalues --    3.95107   3.95387   3.97315   3.98060   3.98601
 Alpha virt. eigenvalues --    3.99897   4.00396   4.01469   4.02070   4.03120
 Alpha virt. eigenvalues --    4.04522   4.05169   4.06234   4.07119   4.08197
 Alpha virt. eigenvalues --    4.09168   4.11375   4.12290   4.12804   4.13699
 Alpha virt. eigenvalues --    4.16024   4.16844   4.18288   4.18507   4.19598
 Alpha virt. eigenvalues --    4.20102   4.22079   4.22583   4.23815   4.26041
 Alpha virt. eigenvalues --    4.26652   4.28343   4.29539   4.30527   4.31771
 Alpha virt. eigenvalues --    4.34237   4.35592   4.35870   4.38818   4.40668
 Alpha virt. eigenvalues --    4.41824   4.43107   4.43673   4.46232   4.47031
 Alpha virt. eigenvalues --    4.49479   4.51089   4.52357   4.53107   4.56540
 Alpha virt. eigenvalues --    4.58301   4.60243   4.61661   4.62619   4.63274
 Alpha virt. eigenvalues --    4.63908   4.65906   4.67411   4.67593   4.69147
 Alpha virt. eigenvalues --    4.69896   4.70792   4.71879   4.72770   4.73876
 Alpha virt. eigenvalues --    4.75295   4.76041   4.77030   4.78489   4.79641
 Alpha virt. eigenvalues --    4.81017   4.82273   4.84784   4.86512   4.87402
 Alpha virt. eigenvalues --    4.88309   4.89504   4.90437   4.92221   4.93948
 Alpha virt. eigenvalues --    4.94971   4.96762   4.97384   4.98942   4.99340
 Alpha virt. eigenvalues --    5.00482   5.02116   5.02997   5.03839   5.05411
 Alpha virt. eigenvalues --    5.06653   5.07742   5.08474   5.09420   5.09738
 Alpha virt. eigenvalues --    5.10367   5.11719   5.12509   5.12956   5.13911
 Alpha virt. eigenvalues --    5.14363   5.16761   5.16998   5.20974   5.21495
 Alpha virt. eigenvalues --    5.22632   5.25671   5.26856   5.28095   5.28700
 Alpha virt. eigenvalues --    5.32234   5.33241   5.37618   5.37748   5.40926
 Alpha virt. eigenvalues --    5.43109   5.43684   5.45709   5.46817   5.48533
 Alpha virt. eigenvalues --    5.50449   5.54045   5.56786   5.58248   5.59339
 Alpha virt. eigenvalues --    5.59542   5.60960   5.62248   5.63446   5.65256
 Alpha virt. eigenvalues --    5.66730   5.67504   5.68158   5.68742   5.70555
 Alpha virt. eigenvalues --    5.71197   5.74074   5.76796   5.79119   5.80925
 Alpha virt. eigenvalues --    5.83094   5.85647   5.89683   5.96299   6.00561
 Alpha virt. eigenvalues --    6.05917   6.10746   6.27160   6.34919   6.36789
 Alpha virt. eigenvalues --    6.38125   6.39406   6.40646   6.44853   6.46632
 Alpha virt. eigenvalues --    6.47550   6.51912   6.63338   6.75204   6.80943
 Alpha virt. eigenvalues --    6.94766   6.98716   6.99828   7.02489   8.70099
 Alpha virt. eigenvalues --    9.00118   9.27365  10.64403  11.40505  11.48670
 Alpha virt. eigenvalues --   11.60940  12.07561  12.23553  12.60749  12.93897
 Alpha virt. eigenvalues --   13.38238  13.40177  13.52379  13.60626
          Condensed to atoms (all electrons):
              1          2          3          4          5          6
     1  C    4.953401   0.479396  -0.105572   0.442493   0.002392  -0.000696
     2  C    0.479396   5.210297  -0.093430  -0.052894   0.004211  -0.007632
     3  C   -0.105572  -0.093430   4.671196   0.004381   0.421732   0.000083
     4  H    0.442493  -0.052894   0.004381   0.468676   0.000025  -0.000069
     5  H    0.002392   0.004211   0.421732   0.000025   0.468150   0.000002
     6  C   -0.000696  -0.007632   0.000083  -0.000069   0.000002   4.779922
     7  N   -0.007147   0.000332   0.001739  -0.000224   0.000128  -0.083706
     8  H    0.000400  -0.001149   0.000014   0.000017   0.000002  -0.002817
     9  O    0.000002   0.000847   0.000001   0.000000   0.000000   0.646022
    10  C    0.009118  -0.010243  -0.000567   0.000228   0.000007   0.247309
    11  H    0.001524  -0.000027   0.000014   0.000056  -0.000002  -0.024754
    12  C   -0.053048   0.225694   0.003339  -0.001209  -0.000205  -0.044266
    13  H   -0.004880  -0.028114   0.000341   0.000057   0.000020  -0.003562
    14  H    0.000283  -0.043884   0.000051   0.000329   0.000006   0.006003
    15  N   -0.050575   0.336109   0.518052   0.002761  -0.034325  -0.000482
    16  N    0.321963  -0.056928   0.394954  -0.018812  -0.015855   0.000002
    17  H   -0.020051   0.000300  -0.008749  -0.000196   0.000222  -0.000001
    18  N    0.000002   0.000901   0.000001   0.000001   0.000000   0.319592
    19  H    0.000001   0.000039   0.000000   0.000000   0.000000  -0.020552
    20  C    0.000000  -0.000007   0.000000   0.000000   0.000000  -0.052258
    21  H    0.000000  -0.000002   0.000000   0.000000   0.000000   0.005509
    22  H    0.000000   0.000009   0.000000   0.000000   0.000000  -0.011811
    23  H    0.000000  -0.000057   0.000000  -0.000001   0.000000   0.002583
    24  C   -0.000224  -0.000504   0.000088  -0.000002   0.000004  -0.007512
    25  C   -0.000006   0.000063   0.000025   0.000000   0.000005  -0.000229
    26  H   -0.000014   0.000026  -0.000001   0.000000   0.000002   0.000067
    27  H   -0.000001  -0.000002   0.000000   0.000000   0.000000   0.000244
    28  H    0.000001  -0.000020   0.000005   0.000000  -0.000001  -0.000057
    29  O   -0.000001  -0.000024   0.000001   0.000000   0.000000   0.013634
    30  H    0.003496  -0.019231  -0.026690  -0.000167  -0.002557   0.000432
              7          8          9         10         11         12
     1  C   -0.007147   0.000400   0.000002   0.009118   0.001524  -0.053048
     2  C    0.000332  -0.001149   0.000847  -0.010243  -0.000027   0.225694
     3  C    0.001739   0.000014   0.000001  -0.000567   0.000014   0.003339
     4  H   -0.000224   0.000017   0.000000   0.000228   0.000056  -0.001209
     5  H    0.000128   0.000002   0.000000   0.000007  -0.000002  -0.000205
     6  C   -0.083706  -0.002817   0.646022   0.247309  -0.024754  -0.044266
     7  N    6.603609   0.375128  -0.008211   0.276547  -0.031821  -0.049427
     8  H    0.375128   0.513914   0.019765  -0.030791   0.006056   0.003037
     9  O   -0.008211   0.019765   7.861980  -0.076103   0.004170  -0.002263
    10  C    0.276547  -0.030791  -0.076103   5.324276   0.410208   0.203217
    11  H   -0.031821   0.006056   0.004170   0.410208   0.429544  -0.030434
    12  C   -0.049427   0.003037  -0.002263   0.203217  -0.030434   5.130706
    13  H    0.005380   0.000014   0.000361  -0.030425   0.001466   0.401306
    14  H   -0.005569   0.005006   0.005221  -0.040402   0.003157   0.427749
    15  N   -0.001498   0.000026  -0.000003  -0.012469  -0.001662  -0.015118
    16  N   -0.000073  -0.000013   0.000000  -0.000352  -0.000063   0.003627
    17  H   -0.000012   0.000000   0.000000   0.000009   0.000001  -0.000222
    18  N    0.004425   0.001358  -0.103708  -0.065965   0.012924  -0.008143
    19  H   -0.000271  -0.000085  -0.001395   0.005306   0.000100   0.000652
    20  C   -0.000317  -0.000013  -0.012292   0.005327  -0.000194  -0.000832
    21  H    0.000008  -0.000002   0.000980  -0.000020  -0.000074   0.000033
    22  H    0.000071  -0.000059   0.014789   0.001690   0.000165  -0.000270
    23  H   -0.000097  -0.000012  -0.000864  -0.001075  -0.000181   0.000547
    24  C    0.310926  -0.016529   0.006821  -0.062462  -0.010056   0.006028
    25  C   -0.045011   0.000758   0.000070   0.002539   0.000505  -0.000118
    26  H    0.010472  -0.000725   0.000028   0.000538  -0.000082  -0.000064
    27  H    0.003961  -0.000444   0.000062  -0.000324  -0.000111  -0.000006
    28  H   -0.000633   0.000194   0.000001  -0.000443  -0.000123  -0.000017
    29  O   -0.108014  -0.000512  -0.027807   0.020155   0.002261   0.002412
    30  H    0.000387   0.000143   0.000010   0.006746   0.001485  -0.003319
             13         14         15         16         17         18
     1  C   -0.004880   0.000283  -0.050575   0.321963  -0.020051   0.000002
     2  C   -0.028114  -0.043884   0.336109  -0.056928   0.000300   0.000901
     3  C    0.000341   0.000051   0.518052   0.394954  -0.008749   0.000001
     4  H    0.000057   0.000329   0.002761  -0.018812  -0.000196   0.000001
     5  H    0.000020   0.000006  -0.034325  -0.015855   0.000222   0.000000
     6  C   -0.003562   0.006003  -0.000482   0.000002  -0.000001   0.319592
     7  N    0.005380  -0.005569  -0.001498  -0.000073  -0.000012   0.004425
     8  H    0.000014   0.005006   0.000026  -0.000013   0.000000   0.001358
     9  O    0.000361   0.005221  -0.000003   0.000000   0.000000  -0.103708
    10  C   -0.030425  -0.040402  -0.012469  -0.000352   0.000009  -0.065965
    11  H    0.001466   0.003157  -0.001662  -0.000063   0.000001   0.012924
    12  C    0.401306   0.427749  -0.015118   0.003627  -0.000222  -0.008143
    13  H    0.474022  -0.012152   0.000349   0.000203   0.000085   0.009740
    14  H   -0.012152   0.462039   0.001621  -0.000012  -0.000033   0.000547
    15  N    0.000349   0.001621   5.916805  -0.068236  -0.001441   0.000019
    16  N    0.000203  -0.000012  -0.068236   6.164535   0.384138   0.000000
    17  H    0.000085  -0.000033  -0.001441   0.384138   0.519075   0.000000
    18  N    0.009740   0.000547   0.000019   0.000000   0.000000   6.524969
    19  H   -0.000233   0.000049  -0.000001   0.000000   0.000000   0.383484
    20  C   -0.000112  -0.000104   0.000000   0.000000   0.000000   0.261197
    21  H   -0.000046   0.000001   0.000000   0.000000   0.000000  -0.021580
    22  H    0.000285  -0.000129   0.000000   0.000000   0.000000  -0.053781
    23  H   -0.000837   0.000310  -0.000001   0.000000   0.000000  -0.036814
    24  C    0.000194  -0.000372   0.000462  -0.000003   0.000000   0.000469
    25  C    0.000025   0.000010   0.000071   0.000000   0.000000  -0.000053
    26  H   -0.000001  -0.000018  -0.000011   0.000000   0.000000  -0.000001
    27  H   -0.000001  -0.000001   0.000003   0.000000   0.000000   0.000000
    28  H   -0.000002   0.000001   0.000011   0.000000   0.000000   0.000006
    29  O    0.000100   0.000151   0.000009   0.000000   0.000000  -0.007491
    30  H   -0.000052   0.000074   0.384772   0.003181  -0.000326  -0.000046
             19         20         21         22         23         24
     1  C    0.000001   0.000000   0.000000   0.000000   0.000000  -0.000224
     2  C    0.000039  -0.000007  -0.000002   0.000009  -0.000057  -0.000504
     3  C    0.000000   0.000000   0.000000   0.000000   0.000000   0.000088
     4  H    0.000000   0.000000   0.000000   0.000000  -0.000001  -0.000002
     5  H    0.000000   0.000000   0.000000   0.000000   0.000000   0.000004
     6  C   -0.020552  -0.052258   0.005509  -0.011811   0.002583  -0.007512
     7  N   -0.000271  -0.000317   0.000008   0.000071  -0.000097   0.310926
     8  H   -0.000085  -0.000013  -0.000002  -0.000059  -0.000012  -0.016529
     9  O   -0.001395  -0.012292   0.000980   0.014789  -0.000864   0.006821
    10  C    0.005306   0.005327  -0.000020   0.001690  -0.001075  -0.062462
    11  H    0.000100  -0.000194  -0.000074   0.000165  -0.000181  -0.010056
    12  C    0.000652  -0.000832   0.000033  -0.000270   0.000547   0.006028
    13  H   -0.000233  -0.000112  -0.000046   0.000285  -0.000837   0.000194
    14  H    0.000049  -0.000104   0.000001  -0.000129   0.000310  -0.000372
    15  N   -0.000001   0.000000   0.000000   0.000000  -0.000001   0.000462
    16  N    0.000000   0.000000   0.000000   0.000000   0.000000  -0.000003
    17  H    0.000000   0.000000   0.000000   0.000000   0.000000   0.000000
    18  N    0.383484   0.261197  -0.021580  -0.053781  -0.036814   0.000469
    19  H    0.539865  -0.026219  -0.004227  -0.006832   0.006595  -0.001308
    20  C   -0.026219   4.791882   0.402957   0.412692   0.395995   0.000178
    21  H   -0.004227   0.402957   0.559359  -0.029499  -0.020195  -0.000005
    22  H   -0.006832   0.412692  -0.029499   0.594115  -0.048749   0.000160
    23  H    0.006595   0.395995  -0.020195  -0.048749   0.598338  -0.000055
    24  C   -0.001308   0.000178  -0.000005   0.000160  -0.000055   4.615651
    25  C    0.000016   0.000002   0.000000   0.000004  -0.000001   0.297501
    26  H   -0.000003   0.000000   0.000000   0.000000   0.000000  -0.051146
    27  H    0.000000   0.000000   0.000000   0.000000   0.000000  -0.037108
    28  H   -0.000004   0.000000   0.000000   0.000000   0.000000  -0.014087
    29  O    0.005237  -0.000072   0.000012   0.000052   0.000021   0.631192
    30  H   -0.000009   0.000001   0.000000  -0.000001   0.000000  -0.000295
             25         26         27         28         29         30
     1  C   -0.000006  -0.000014  -0.000001   0.000001  -0.000001   0.003496
     2  C    0.000063   0.000026  -0.000002  -0.000020  -0.000024  -0.019231
     3  C    0.000025  -0.000001   0.000000   0.000005   0.000001  -0.026690
     4  H    0.000000   0.000000   0.000000   0.000000   0.000000  -0.000167
     5  H    0.000005   0.000002   0.000000  -0.000001   0.000000  -0.002557
     6  C   -0.000229   0.000067   0.000244  -0.000057   0.013634   0.000432
     7  N   -0.045011   0.010472   0.003961  -0.000633  -0.108014   0.000387
     8  H    0.000758  -0.000725  -0.000444   0.000194  -0.000512   0.000143
     9  O    0.000070   0.000028   0.000062   0.000001  -0.027807   0.000010
    10  C    0.002539   0.000538  -0.000324  -0.000443   0.020155   0.006746
    11  H    0.000505  -0.000082  -0.000111  -0.000123   0.002261   0.001485
    12  C   -0.000118  -0.000064  -0.000006  -0.000017   0.002412  -0.003319
    13  H    0.000025  -0.000001  -0.000001  -0.000002   0.000100  -0.000052
    14  H    0.000010  -0.000018  -0.000001   0.000001   0.000151   0.000074
    15  N    0.000071  -0.000011   0.000003   0.000011   0.000009   0.384772
    16  N    0.000000   0.000000   0.000000   0.000000   0.000000   0.003181
    17  H    0.000000   0.000000   0.000000   0.000000   0.000000  -0.000326
    18  N   -0.000053  -0.000001   0.000000   0.000006  -0.007491  -0.000046
    19  H    0.000016  -0.000003   0.000000  -0.000004   0.005237  -0.000009
    20  C    0.000002   0.000000   0.000000   0.000000  -0.000072   0.000001
    21  H    0.000000   0.000000   0.000000   0.000000   0.000012   0.000000
    22  H    0.000004   0.000000   0.000000   0.000000   0.000052  -0.000001
    23  H   -0.000001   0.000000   0.000000   0.000000   0.000021   0.000000
    24  C    0.297501  -0.051146  -0.037108  -0.014087   0.631192  -0.000295
    25  C    4.842015   0.400666   0.405274   0.380427  -0.053541   0.000124
    26  H    0.400666   0.585073  -0.021928  -0.033229   0.003361  -0.000029
    27  H    0.405274  -0.021928   0.531103  -0.017815   0.004341   0.000004
    28  H    0.380427  -0.033229  -0.017815   0.579646  -0.000869   0.000197
    29  O   -0.053541   0.003361   0.004341  -0.000869   7.835672  -0.000041
    30  H    0.000124  -0.000029   0.000004   0.000197  -0.000041   0.498482
 Mulliken atomic charges:
              1
     1  C    0.027743
     2  C    0.055924
     3  C    0.218990
     4  H    0.154551
     5  H    0.156038
     6  C    0.238999
     7  N   -0.251084
     8  H    0.127316
     9  O   -0.328483
[...]
 Alpha virt. eigenvalues --    4.31766   4.33004   4.34578   4.36311   4.36682
 Alpha virt. eigenvalues --    4.37191   4.39376   4.40664   4.41576   4.44205
 Alpha virt. eigenvalues --    4.46447   4.48454   4.50204   4.51194   4.52310
 Alpha virt. eigenvalues --    4.55624   4.56493   4.56963   4.57298   4.59727
 Alpha virt. eigenvalues --    4.60396   4.60812   4.61511   4.64106   4.64897
 Alpha virt. eigenvalues --    4.66441   4.66535   4.66979   4.68192   4.69145
 Alpha virt. eigenvalues --    4.69750   4.70935   4.73602   4.74638   4.76012
 Alpha virt. eigenvalues --    4.77364   4.79109   4.80324   4.81147   4.81860
 Alpha virt. eigenvalues --    4.82319   4.83706   4.85402   4.85644   4.86043
 Alpha virt. eigenvalues --    4.87008   4.87275   4.88090   4.89613   4.90577
 Alpha virt. eigenvalues --    4.90896   4.92224   4.93803   4.95498   4.96115
 Alpha virt. eigenvalues --    4.98861   5.01292   5.01712   5.03431   5.04217
 Alpha virt. eigenvalues --    5.05225   5.07229   5.08259   5.08455   5.09784
 Alpha virt. eigenvalues --    5.10925   5.11764   5.14489   5.14899   5.16553
 Alpha virt. eigenvalues --    5.17462   5.19201   5.20245   5.21448   5.23246
 Alpha virt. eigenvalues --    5.24373   5.27267   5.28145   5.30669   5.33734
 Alpha virt. eigenvalues --    5.36361   5.39786   5.43449   5.44058   5.46678
 Alpha virt. eigenvalues --    5.48336   5.49931   5.51686   5.52800   5.55800
 Alpha virt. eigenvalues --    5.58360   5.59602   5.61645   5.61740   5.64470
 Alpha virt. eigenvalues --    5.64870   5.66572   5.67407   5.70122   5.70808
 Alpha virt. eigenvalues --    5.74743   5.75691   5.78333   5.79346   5.82392
 Alpha virt. eigenvalues --    5.85915   5.88842   5.89522   5.90497   5.92050
 Alpha virt. eigenvalues --    5.97728   6.03660   6.10419   6.14413   6.16672
 Alpha virt. eigenvalues --    6.21169   6.28086   6.37964   6.39053   6.46741
 Alpha virt. eigenvalues --    6.55437   6.58498   6.63505   6.66641   6.72183
 Alpha virt. eigenvalues --    6.76691   6.79653   6.81895   6.82705   6.94213
 Alpha virt. eigenvalues --    6.98674   7.07943   7.08448   7.40969   9.22046
 Alpha virt. eigenvalues --    9.45427  10.07286  11.51227  11.89771  12.28611
 Alpha virt. eigenvalues --   12.54019  12.78324  13.19135  13.37339  13.46234
 Alpha virt. eigenvalues --   13.62609  13.73034  13.78887  13.96390
          Condensed to atoms (all electrons):
              1          2          3          4          5          6
     1  C    4.909685   0.565430  -0.122837   0.434374   0.003622  -0.000565
     2  C    0.565430   5.118866  -0.095128  -0.036173   0.004630  -0.007940
     3  C   -0.122837  -0.095128   4.670073   0.005382   0.418783  -0.000034
     4  H    0.434374  -0.036173   0.005382   0.482976  -0.000045  -0.000014
     5  H    0.003622   0.004630   0.418783  -0.000045   0.476023  -0.000001
     6  C   -0.000565  -0.007940  -0.000034  -0.000014  -0.000001   4.603203
     7  N    0.000584  -0.003215   0.000113  -0.000006   0.000002  -0.022481
     8  H    0.000006   0.000711   0.000017   0.000001   0.000001  -0.010338
     9  O    0.000012   0.002070   0.000001   0.000002   0.000000   0.666784
    10  C    0.003268   0.004904   0.000022   0.000008   0.000032   0.200858
    11  H    0.000073   0.008497   0.000123   0.000030   0.000027  -0.013962
    12  C   -0.063593   0.162060   0.004532  -0.001565  -0.000293  -0.038970
    13  H   -0.006817  -0.065331  -0.000249  -0.000048   0.000008   0.004633
    14  H   -0.005480  -0.020802   0.000359   0.000090   0.000017  -0.002789
    15  N   -0.076632   0.419052   0.526810   0.003030  -0.023277  -0.000105
    16  N    0.405965  -0.074258   0.502120  -0.025664  -0.024157   0.000004
    17  H   -0.026399   0.003644  -0.029148  -0.001757  -0.002246   0.000000
    18  N   -0.000082   0.000096   0.000001  -0.000007   0.000000   0.422911
    19  H    0.000043   0.000252  -0.000002   0.000001   0.000000  -0.033933
    20  C    0.000001   0.000000   0.000000   0.000000   0.000000  -0.052932
    21  H    0.000001   0.000008   0.000000   0.000000   0.000000   0.003519
    22  H    0.000000  -0.000006   0.000000   0.000000   0.000000   0.000569
    23  H    0.000000  -0.000010   0.000000   0.000000   0.000000  -0.011922
    24  C   -0.000203  -0.003093   0.000676  -0.000008   0.000037   0.011919
    25  C   -0.000013  -0.000183  -0.000062   0.000000  -0.000003  -0.000238
    26  H    0.000002   0.000028   0.000000   0.000000   0.000000  -0.000293
    27  H    0.000000   0.000012   0.000000   0.000000   0.000000   0.000047
    28  H    0.000001  -0.000046   0.000023   0.000000   0.000000   0.000019
    29  O   -0.000619  -0.005621   0.001241   0.000003   0.000333   0.001965
    30  H    0.004191  -0.028947  -0.023606  -0.000032  -0.001370   0.000209
              7          8          9         10         11         12
     1  C    0.000584   0.000006   0.000012   0.003268   0.000073  -0.063593
     2  C   -0.003215   0.000711   0.002070   0.004904   0.008497   0.162060
     3  C    0.000113   0.000017   0.000001   0.000022   0.000123   0.004532
     4  H   -0.000006   0.000001   0.000002   0.000008   0.000030  -0.001565
     5  H    0.000002   0.000001   0.000000   0.000032   0.000027  -0.000293
     6  C   -0.022481  -0.010338   0.666784   0.200858  -0.013962  -0.038970
     7  N    6.500877   0.366908  -0.030698   0.191878  -0.046417  -0.029509
     8  H    0.366908   0.452325   0.045153  -0.033495   0.003019   0.000416
     9  O   -0.030698   0.045153   7.840372  -0.065347   0.001333   0.001850
    10  C    0.191878  -0.033495  -0.065347   5.449700   0.431579   0.158264
    11  H   -0.046417   0.003019   0.001333   0.431579   0.434463  -0.067796
    12  C   -0.029509   0.000416   0.001850   0.158264  -0.067796   5.285681
    13  H    0.005677   0.000079  -0.002412  -0.042322   0.000699   0.432219
    14  H    0.001289   0.002077   0.004991  -0.023823   0.005336   0.382124
    15  N    0.000632   0.000051  -0.000002  -0.010914  -0.000292  -0.020505
    16  N   -0.000006   0.000000   0.000000  -0.000211  -0.000049   0.005752
    17  H   -0.000001   0.000000   0.000000   0.000027   0.000003  -0.000402
    18  N   -0.000637   0.003153  -0.100283  -0.067895   0.001150  -0.007212
    19  H    0.000584  -0.000289   0.004137   0.008566  -0.001341  -0.000825
    20  C   -0.000249  -0.000009  -0.011520   0.006673   0.000269  -0.000186
    21  H   -0.000011  -0.000002   0.000104  -0.000235   0.000069   0.000347
    22  H    0.000055   0.000019  -0.000065  -0.000737  -0.000127  -0.000069
    23  H   -0.000013  -0.000217   0.021067   0.003927  -0.000102  -0.000255
    24  C    0.427664  -0.018196  -0.001943  -0.069992  -0.007453   0.004134
    25  C   -0.041351  -0.001898  -0.000126   0.008513   0.000581  -0.000918
    26  H    0.008941  -0.000221  -0.000189   0.000674  -0.000102  -0.000071
    27  H   -0.001961  -0.000259  -0.000004  -0.000643   0.000024  -0.000017
    28  H    0.001350   0.000212   0.000001  -0.000618  -0.000171   0.000183
    29  O   -0.128386   0.002762  -0.000028   0.022702   0.016521  -0.003690
    30  H   -0.002156  -0.000336  -0.000001   0.006333   0.000879  -0.003932
             13         14         15         16         17         18
     1  C   -0.006817  -0.005480  -0.076632   0.405965  -0.026399  -0.000082
     2  C   -0.065331  -0.020802   0.419052  -0.074258   0.003644   0.000096
     3  C   -0.000249   0.000359   0.526810   0.502120  -0.029148   0.000001
     4  H   -0.000048   0.000090   0.003030  -0.025664  -0.001757  -0.000007
     5  H    0.000008   0.000017  -0.023277  -0.024157  -0.002246   0.000000
     6  C    0.004633  -0.002789  -0.000105   0.000004   0.000000   0.422911
     7  N    0.005677   0.001289   0.000632  -0.000006  -0.000001  -0.000637
     8  H    0.000079   0.002077   0.000051   0.000000   0.000000   0.003153
     9  O   -0.002412   0.004991  -0.000002   0.000000   0.000000  -0.100283
    10  C   -0.042322  -0.023823  -0.010914  -0.000211   0.000027  -0.067895
    11  H    0.000699   0.005336  -0.000292  -0.000049   0.000003   0.001150
    12  C    0.432219   0.382124  -0.020505   0.005752  -0.000402  -0.007212
    13  H    0.496914  -0.011445   0.002087   0.000286  -0.000017   0.011817
    14  H   -0.011445   0.485528  -0.000163   0.000207  -0.000002   0.000612
    15  N    0.002087  -0.000163   6.071587  -0.095577   0.002932   0.000008
    16  N    0.000286   0.000207  -0.095577   5.905026   0.402239   0.000000
    17  H   -0.000017  -0.000002   0.002932   0.402239   0.518965   0.000000
    18  N    0.011817   0.000612   0.000008   0.000000   0.000000   6.368692
    19  H    0.000042  -0.000044  -0.000005   0.000000   0.000000   0.385151
    20  C   -0.000508   0.000026   0.000000   0.000000   0.000000   0.253224
    21  H   -0.000298   0.000001   0.000000   0.000000   0.000000  -0.033310
    22  H    0.000099  -0.000001   0.000000   0.000000   0.000000  -0.030394
    23  H   -0.000091  -0.000045   0.000000   0.000000   0.000000  -0.034273
    24  C    0.000546  -0.000700   0.003092  -0.000016   0.000000  -0.000840
    25  C    0.000028  -0.000038  -0.000213   0.000000   0.000000  -0.000021
    26  H    0.000003   0.000000   0.000031   0.000000   0.000000  -0.000011
    27  H    0.000001   0.000007  -0.000002   0.000000   0.000000  -0.000003
    28  H   -0.000003  -0.000022   0.000029   0.000000   0.000000   0.000000
    29  O   -0.000073  -0.000142  -0.046009   0.000014   0.000008   0.000023
    30  H    0.000070  -0.000055   0.352782   0.001302  -0.000138   0.000021
             19         20         21         22         23         24
     1  C    0.000043   0.000001   0.000001   0.000000   0.000000  -0.000203
     2  C    0.000252   0.000000   0.000008  -0.000006  -0.000010  -0.003093
     3  C   -0.000002   0.000000   0.000000   0.000000   0.000000   0.000676
     4  H    0.000001   0.000000   0.000000   0.000000   0.000000  -0.000008
     5  H    0.000000   0.000000   0.000000   0.000000   0.000000   0.000037
     6  C   -0.033933  -0.052932   0.003519   0.000569  -0.011922   0.011919
     7  N    0.000584  -0.000249  -0.000011   0.000055  -0.000013   0.427664
     8  H   -0.000289  -0.000009  -0.000002   0.000019  -0.000217  -0.018196
     9  O    0.004137  -0.011520   0.000104  -0.000065   0.021067  -0.001943
    10  C    0.008566   0.006673  -0.000235  -0.000737   0.003927  -0.069992
    11  H   -0.001341   0.000269   0.000069  -0.000127  -0.000102  -0.007453
    12  C   -0.000825  -0.000186   0.000347  -0.000069  -0.000255   0.004134
    13  H    0.000042  -0.000508  -0.000298   0.000099  -0.000091   0.000546
    14  H   -0.000044   0.000026   0.000001  -0.000001  -0.000045  -0.000700
    15  N   -0.000005   0.000000   0.000000   0.000000   0.000000   0.003092
    16  N    0.000000   0.000000   0.000000   0.000000   0.000000  -0.000016
    17  H    0.000000   0.000000   0.000000   0.000000   0.000000   0.000000
    18  N    0.385151   0.253224  -0.033310  -0.030394  -0.034273  -0.000840
    19  H    0.532259  -0.029248  -0.003561  -0.003942   0.005078   0.000101
    20  C   -0.029248   4.777126   0.401695   0.405801   0.400781   0.000036
    21  H   -0.003561   0.401695   0.587408  -0.035789  -0.023468  -0.000002
    22  H   -0.003942   0.405801  -0.035789   0.578314  -0.025974   0.000003
    23  H    0.005078   0.400781  -0.023468  -0.025974   0.529522   0.000012
    24  C    0.000101   0.000036  -0.000002   0.000003   0.000012   4.578321
    25  C    0.000004  -0.000001   0.000000   0.000000   0.000000   0.280678
    26  H    0.000002   0.000000   0.000000   0.000000   0.000000  -0.058813
    27  H    0.000000   0.000000   0.000000   0.000000   0.000000  -0.023263
    28  H    0.000000   0.000000   0.000000   0.000000   0.000000  -0.026504
    29  O   -0.000058   0.000002   0.000000   0.000000   0.000000   0.586683
    30  H   -0.000015   0.000000   0.000000   0.000000   0.000000  -0.015017
             25         26         27         28         29         30
     1  C   -0.000013   0.000002   0.000000   0.000001  -0.000619   0.004191
     2  C   -0.000183   0.000028   0.000012  -0.000046  -0.005621  -0.028947
     3  C   -0.000062   0.000000   0.000000   0.000023   0.001241  -0.023606
     4  H    0.000000   0.000000   0.000000   0.000000   0.000003  -0.000032
     5  H   -0.000003   0.000000   0.000000   0.000000   0.000333  -0.001370
     6  C   -0.000238  -0.000293   0.000047   0.000019   0.001965   0.000209
     7  N   -0.041351   0.008941  -0.001961   0.001350  -0.128386  -0.002156
     8  H   -0.001898  -0.000221  -0.000259   0.000212   0.002762  -0.000336
     9  O   -0.000126  -0.000189  -0.000004   0.000001  -0.000028  -0.000001
    10  C    0.008513   0.000674  -0.000643  -0.000618   0.022702   0.006333
    11  H    0.000581  -0.000102   0.000024  -0.000171   0.016521   0.000879
    12  C   -0.000918  -0.000071  -0.000017   0.000183  -0.003690  -0.003932
    13  H    0.000028   0.000003   0.000001  -0.000003  -0.000073   0.000070
    14  H   -0.000038   0.000000   0.000007  -0.000022  -0.000142  -0.000055
    15  N   -0.000213   0.000031  -0.000002   0.000029  -0.046009   0.352782
    16  N    0.000000   0.000000   0.000000   0.000000   0.000014   0.001302
    17  H    0.000000   0.000000   0.000000   0.000000   0.000008  -0.000138
    18  N   -0.000021  -0.000011  -0.000003   0.000000   0.000023   0.000021
    19  H    0.000004   0.000002   0.000000   0.000000  -0.000058  -0.000015
    20  C   -0.000001   0.000000   0.000000   0.000000   0.000002   0.000000
    21  H    0.000000   0.000000   0.000000   0.000000   0.000000   0.000000
    22  H    0.000000   0.000000   0.000000   0.000000   0.000000   0.000000
    23  H    0.000000   0.000000   0.000000   0.000000   0.000000   0.000000
    24  C    0.280678  -0.058813  -0.023263  -0.026504   0.586683  -0.015017
    25  C    4.862111   0.417538   0.389309   0.387114  -0.047293   0.001917
    26  H    0.417538   0.563507  -0.021668  -0.024328   0.002736  -0.000223
    27  H    0.389309  -0.021668   0.552221  -0.022585   0.000584  -0.000021
    28  H    0.387114  -0.024328  -0.022585   0.565938   0.002407  -0.000014
    29  O   -0.047293   0.002736   0.000584   0.002407   7.930076   0.090777
    30  H    0.001917  -0.000223  -0.000021  -0.000014   0.090777   0.370720
 Mulliken atomic charges:
              1
     1  C   -0.024018
     2  C    0.050495
     3  C    0.140790
     4  H    0.139422
     5  H    0.147876
     6  C    0.279878
     7  N   -0.199457
     8  H    0.188352
     9  O   -0.375260
    10  C   -0.181697
    11  H    0.233135
    12  C   -0.197751
    13  H    0.174406
    14  H    0.182888
    15  N   -0.108427
    16  N   -0.002978
    17  H    0.132292
    18  N   -0.171890
    19  H    0.137041
    20  C   -0.150983
    21  H    0.103525
    22  H    0.112246
    23  H    0.135982
    24  C    0.332139
    25  C   -0.255437
    26  H    0.112459
    27  H    0.128217
    28  H    0.117015
    29  O   -0.426920
    30  H    0.246661
 Sum of Mulliken atomic charges =   1.00000
 Mulliken charges with hydrogens summed into heavy atoms:
              1
     1  C    0.115403
     2  C    0.050495
     3  C    0.288666
     6  C    0.279878
     7  N   -0.011105
     9  O   -0.375260
    10  C    0.051438
    12  C    0.159542
    15  N    0.138234
    16  N    0.129314
    18  N   -0.034850
    20  C    0.200770
    24  C    0.332139
    25  C    0.102254
    29  O   -0.426920
 Sum of Mulliken charges with hydrogens summed into heavy atoms =   1.00000
 Electronic spatial extent (au):  <R**2>=           3746.1593
 Charge=              1.0000 electrons
 Dipole moment (field-independent basis, Debye):
    X=             -7.3962    Y=             -4.2711    Z=             -1.0482  Tot=              8.6049
 Quadrupole moment (field-independent basis, Debye-Ang):
   XX=            -34.5638   YY=            -58.9371   ZZ=            -83.9794
   XY=             10.3039   XZ=             -7.0141   YZ=              3.5258
 Traceless Quadrupole moment (field-independent basis, Debye-Ang):
   XX=             24.5963   YY=              0.2230   ZZ=            -24.8192
   XY=             10.3039   XZ=             -7.0141   YZ=              3.5258
 Octapole moment (field-independent basis, Debye-Ang**2):
  XXX=           -157.9338  YYY=             15.2247  ZZZ=             -5.3847  XYY=             -9.2105
  XXY=            -90.1471  XXZ=            -37.8590  XZZ=             -0.3981  YZZ=             -6.8595
  YYZ=             16.7079  XYZ=             13.8658
 Hexadecapole moment (field-independent basis, Debye-Ang**3):
 XXXX=          -1803.3063 YYYY=          -1326.8281 ZZZZ=           -289.6888 XXXY=            143.9513
 XXXZ=            -20.2884 YYYX=             89.7539 YYYZ=              5.3863 ZZZX=             -5.4079
 ZZZY=              8.8088 XXYY=           -537.1911 XXZZ=           -508.6267 YYZZ=           -306.1409
 XXYZ=              1.3049 YYXZ=            -43.1550 ZZXY=              2.0941
 N-N= 1.035986471891D+03 E-N=-3.736997299683D+03  KE= 7.159911147061D+02
 Calculating spin-rotation constants.
 Leave Link  601 at Sun Apr  7 00:56:33 2013, MaxMem= 4294967296 cpu:     748.0
 (Enter /system/software/linux-x86_64/gaussian/g09/A.02__pgi_8.0-6__acml/l9999.exe)

 Test job not archived.
 1\1\GINC-CARIBOU\SP\RM06\Gen\C9H15N4O2(1+)\KUPROV\07-Apr-2013\0\\#P Ge
 om=AllCheck Guess=TCheck SCRF=Check GenChk RM06/ChkBas NMR=ReadFC IOp(
 3/6=22)\\J-coupling calculation 1\\1,1\C,0,-1.5970969671,-1.9095964419
 ,-0.107047145\C,0,-1.859531224,-0.6685288857,0.3800648249\C,0,-3.72995
 81384,-1.4828250433,-0.4551530648\H,0,-0.6854200395,-2.4781249846,-0.1
 311691511\H,0,-4.7569941288,-1.5816997359,-0.7596661068\C,0,-0.2171365
 55,2.6170710898,1.4716375872\N,0,-2.3549592095,1.9496704576,2.26783983
 65\H,0,-1.8874672678,2.2823891155,3.1050769215\O,0,0.0959151095,2.8064
 928245,2.6268423941\C,0,-1.4432277962,1.7465049817,1.1630699643\H,0,-1
 .9312395831,2.0687737837,0.2381056507\C,0,-0.942000922,0.3002340594,1.
 0405372331\H,0,-0.0018814483,0.2993340518,0.4829133603\H,0,-0.69213623
 45,-0.0450679409,2.0480526759\N,0,-3.1945033086,-0.4347222302,0.141863
 9468\N,0,-2.7773652472,-2.3937886203,-0.6175047086\H,0,-2.9070655254,-
 3.2935539536,-1.0517876249\N,0,0.4620673392,3.0603001131,0.40081029\H,
 0,0.0665316652,2.9186439253,-0.5134210078\C,0,1.6707761079,3.853400341
 ,0.5165962573\H,0,2.4863334603,3.3970526241,-0.0418541447\H,0,1.509927
 2659,4.8659692205,0.1489084572\H,0,1.9411128096,3.9004736038,1.5676730
 833\C,0,-3.6915525911,2.0426198693,2.1593421037\C,0,-4.4292917537,2.56
 88725824,3.3431992162\H,0,-3.8003406724,2.7014742989,4.220272958\H,0,-
 4.8659211481,3.5304870825,3.0724376558\H,0,-5.2547403754,1.8995667022,
 3.5773045821\O,0,-4.2882428934,1.71284624,1.1322699655\H,0,-3.70242258
 83,0.4509391994,0.4338270096\\Version=EM64L-G09RevA.02\State=1-A\HF=-7
 21.0546051\RMSD=3.143e-09\Dipole=-0.556724,-2.7223917,-1.9338638\Quadr
 upole=-5.4279845,14.3001116,-8.8721271,9.8295496,-5.2850567,12.2199927
 \PG=C01 [X(C9H15N4O2)]\\@


 LORD, MAN... WERE YE BUT WHYLES WHERE I AM, 
 THE GENTILES YE WAD NE'ER ENVY 'EM.         
 IT'S TRUE, THEY NEEDNA STARVE OR SWEAT,     
 THRO' WINTER'S CAULD OR SIMMER'S HEAT...    
 THEY'VE NAE SAIR WARK TO CRAZE THEIR BANES, 
 AND FILL AULD AGE WITH GRIPS AN' GRANES...  
                                             
 BUT HUMAN BODIES ARE SIC FOOLS              
 FOR A' THEIR COLLEGES AND SCHOOLS,          
 THAT WHEN NAE REAL ILLS PERPLEX THEM,       
 THEY MAK ENOW THEMSELVES TO VEX THEM,       
 AN' AYE THE LESS THEY HAE TO STURT THEM,    
 IN LIKE PROPORTION LESS WILL HURT THEM....  
                                             
                (ROBERT BURNS 'THE TWA DOGS')
 Job cpu time:  6 days 21 hours  1 minutes 43.5 seconds.
 File lengths (MBytes):  RWF=   2347 Int=      0 D2E=      0 Chk=     57 Scr=      1
 Normal termination of Gaussian 09 at Sun Apr  7 00:56:35 2013.
