 Entering Gaussian System, Link 0=g09
 Input=c:\Temp\iso_leucine.gjf
 Output=c:\Temp\iso_leucine.out
 Initial command:
 c:\g09w\l1.exe .\Gau-21916.inp c:\Temp\iso_leucine.out /scrdir=.\
 Entering Link 1 = c:\g09w\l1.exe PID=     22732.
  
 Copyright (c) 1988,1990,1992,1993,1995,1998,2003,2009,2011,
            Gaussian, Inc.  All Rights Reserved.
  
 This is part of the Gaussian(R) 09 program.  It is based on
 the Gaussian(R) 03 system (copyright 2003, Gaussian, Inc.),
 the Gaussian(R) 98 system (copyright 1998, Gaussian, Inc.),
 the Gaussian(R) 94 system (copyright 1995, Gaussian, Inc.),
 the Gaussian 92(TM) system (copyright 1992, Gaussian, Inc.),
 the Gaussian 90(TM) system (copyright 1990, Gaussian, Inc.),
 the Gaussian 88(TM) system (copyright 1988, Gaussian, Inc.),
 the Gaussian 86(TM) system (copyright 1986, Carnegie Mellon
 University), and the Gaussian 82(TM) system (copyright 1983,
 Carnegie Mellon University). Gaussian is a federally registered
 trademark of Gaussian, Inc.
  
 This software contains proprietary and confidential information,
 including trade secrets, belonging to Gaussian, Inc.
  
 This software is provided under written license and may be
 used, copied, transmitted, or stored only in accord with that
 written license.
  
 The following legend is applicable only to US Government
 contracts under FAR:
  
                    RESTRICTED RIGHTS LEGEND
  
 Use, reproduction and disclosure by the US Government is
 subject to restrictions as set forth in subparagraphs (a)
 and (c) of the Commercial Computer Software - Restricted
 Rights clause in FAR 52.227-19.
  
 Gaussian, Inc.
 340 Quinnipiac St., Bldg. 40, Wallingford CT 06492
  
  
 ---------------------------------------------------------------
 Warning -- This program may not be used in any manner that
 competes with the business of Gaussian, Inc. or will provide
 assistance to any competitor of Gaussian, Inc.  The licensee
 of this program is prohibited from giving any competitor of
 Gaussian, Inc. access to this program.  By using this program,
 the user acknowledges that Gaussian, Inc. is engaged in the
 business of creating and licensing software in the field of
 computational chemistry and represents and warrants to the
 licensee that it is not a competitor of Gaussian, Inc. and that
 it will not use this program in any manner prohibited above.
 ---------------------------------------------------------------
  

 Cite this work as:
 Gaussian 09, Revision C.01,
 M. J. Frisch, G. W. Trucks, H. B. Schlegel, G. E. Scuseria, 
 M. A. Robb, J. R. Cheeseman, G. Scalmani, V. Barone, B. Mennucci, 
 G. A. Petersson, H. Nakatsuji, M. Caricato, X. Li, H. P. Hratchian, 
 A. F. Izmaylov, J. Bloino, G. Zheng, J. L. Sonnenberg, M. Hada, 
 M. Ehara, K. Toyota, R. Fukuda, J. Hasegawa, M. Ishida, T. Nakajima, 
 Y. Honda, O. Kitao, H. Nakai, T. Vreven, J. A. Montgomery, Jr., 
 J. E. Peralta, F. Ogliaro, M. Bearpark, J. J. Heyd, E. Brothers, 
 K. N. Kudin, V. N. Staroverov, T. Keith, R. Kobayashi, J. Normand, 
 K. Raghavachari, A. Rendell, J. C. Burant, S. S. Iyengar, J. Tomasi, 
 M. Cossi, N. Rega, J. M. Millam, M. Klene, J. E. Knox, J. B. Cross, 
 V. Bakken, C. Adamo, J. Jaramillo, R. Gomperts, R. E. Stratmann, 
 O. Yazyev, A. J. Austin, R. Cammi, C. Pomelli, J. W. Ochterski, 
 R. L. Martin, K. Morokuma, V. G. Zakrzewski, G. A. Voth, 
 P. Salvador, J. J. Dannenberg, S. Dapprich, A. D. Daniels, 
 O. Farkas, J. B. Foresman, J. V. Ortiz, J. Cioslowski, 
 and D. J. Fox, Gaussian, Inc., Wallingford CT, 2010.
 
 ******************************************
 Gaussian 09:  EM64W-G09RevC.01 23-Sep-2011
                19-Mar-2013 
 ******************************************
 %Chk=iso_leucine.chk
 %Mem=32GB
 %NProcShared=12
 Will use up to   12 processors via shared memory.
 ------------------------------------------------------------
 #p opt=tight m06/cc-pvtz scf=tight integral=(grid=ultrafine)
 ------------------------------------------------------------
 1/7=10,14=-1,18=20,19=15,26=3,38=1/1,3;
 2/9=110,12=2,17=6,18=5,40=1/2;
 3/5=16,6=1,11=2,16=1,25=1,30=1,71=1,74=-54,75=-5/1,2,3;
 4//1;
 5/5=2,32=2,38=5/2;
 6/7=2,8=2,9=2,10=2,28=1/1;
 7//1,2,3,16;
 1/7=10,14=-1,18=20,19=15/3(2);
 2/9=110/2;
 99//99;
 2/9=110/2;
 3/5=16,6=1,11=2,16=1,25=1,30=1,71=1,74=-54,75=-5/1,2,3;
 4/5=5,16=3/1;
 5/5=2,32=2,38=5/2;
 7//1,2,3,16;
 1/7=10,14=-1,18=20,19=15/3(-5);
 2/9=110/2;
 6/7=2,8=2,9=2,10=2,19=2,28=1/1;
 99/9=1/99;
 Leave Link    1 at Tue Mar 19 11:08:11 2013, MaxMem= 4294967296 cpu:       1.0
 (Enter c:\g09w\l101.exe)
 ---------------------
 Geometry optimisation
 ---------------------
 Charge =  0 Multiplicity = 1
 Symbolic Z-Matrix:
 C                     1.95816  -0.48803   1.4752 
 C                     1.10705   0.33732   0.49234 
 H                     0.53142  -0.32277  -0.12235 
 C                     2.03145   1.19053  -0.39598 
 H                     2.68945   0.54981  -0.94498 
 C                     2.85992   2.14056   0.4887 
 H                     2.20192   2.78129   1.0377 
 H                     3.45128   1.56711   1.1716 
 C                     3.78432   2.99378  -0.39962 
 H                     4.35994   3.65387   0.21506 
 H                     4.44232   2.35305  -0.94862 
 H                     3.19296   3.56724  -1.08251 
 C                     1.18034   2.01588  -1.37884 
 H                     1.82261   2.6087   -1.99605 
 H                     0.60471   1.3558   -1.99353 
 H                     0.52233   2.65661  -0.82984 
 O                     2.25452  -0.01392   2.60256 
 N                     0.20307   1.21757   1.24657 
 H                    -0.3496    1.75351   0.60835 
 N                     2.42439  -1.8297    1.09645 
 H                     3.31459  -1.75855   0.64647 
 C                     2.54938  -2.66314   2.30088 
 H                     1.59687  -2.73928   2.78235 
 H                     2.88875  -3.63973   2.02519 
 H                     3.25352  -2.21707   2.97178 
 C                    -0.67931   0.40314   2.09452 
 C                    -2.09512   0.90329   2.43648 
 H                    -2.46197   1.51062   1.63556 
 H                    -2.74561   0.06515   2.57538 
 H                    -2.06149   1.48161   3.3361 
 O                    -0.27776  -0.70276   2.54097 
 
 NAtoms=     31 NQM=        0 NQMF=       0 NMMI=     31 NMMIF=      0
                NMic=       0 NMicF=      0.
                    Isotopes and Nuclear Properties:
 (Nuclear quadrupole moments (NQMom) in fm**2, nuclear magnetic moments (NMagM)
  in nuclear magnetons)

  Atom         1           2           3           4           5           6           7           8           9          10
 IAtWgt=          12          12           1          12           1          12           1           1          12           1
 AtmWgt=  12.0000000  12.0000000   1.0078250  12.0000000   1.0078250  12.0000000   1.0078250   1.0078250  12.0000000   1.0078250
 NucSpn=           0           0           1           0           1           0           1           1           0           1
 AtZEff=   0.0000000   0.0000000   0.0000000   0.0000000   0.0000000   0.0000000   0.0000000   0.0000000   0.0000000   0.0000000
 NQMom=    0.0000000   0.0000000   0.0000000   0.0000000   0.0000000   0.0000000   0.0000000   0.0000000   0.0000000   0.0000000
 NMagM=    0.0000000   0.0000000   2.7928460   0.0000000   2.7928460   0.0000000   2.7928460   2.7928460   0.0000000   2.7928460

  Atom        11          12          13          14          15          16          17          18          19          20
 IAtWgt=           1           1          12           1           1           1          16          14           1          14
 AtmWgt=   1.0078250   1.0078250  12.0000000   1.0078250   1.0078250   1.0078250  15.9949146  14.0030740   1.0078250  14.0030740
 NucSpn=           1           1           0           1           1           1           0           2           1           2
 AtZEff=   0.0000000   0.0000000   0.0000000   0.0000000   0.0000000   0.0000000   0.0000000   0.0000000   0.0000000   0.0000000
 NQMom=    0.0000000   0.0000000   0.0000000   0.0000000   0.0000000   0.0000000   0.0000000   2.0440000   0.0000000   2.0440000
 NMagM=    2.7928460   2.7928460   0.0000000   2.7928460   2.7928460   2.7928460   0.0000000   0.4037610   2.7928460   0.4037610

  Atom        21          22          23          24          25          26          27          28          29          30
 IAtWgt=           1          12           1           1           1          12          12           1           1           1
 AtmWgt=   1.0078250  12.0000000   1.0078250   1.0078250   1.0078250  12.0000000  12.0000000   1.0078250   1.0078250   1.0078250
 NucSpn=           1           0           1           1           1           0           0           1           1           1
 AtZEff=   0.0000000   0.0000000   0.0000000   0.0000000   0.0000000   0.0000000   0.0000000   0.0000000   0.0000000   0.0000000
 NQMom=    0.0000000   0.0000000   0.0000000   0.0000000   0.0000000   0.0000000   0.0000000   0.0000000   0.0000000   0.0000000
 NMagM=    2.7928460   0.0000000   2.7928460   2.7928460   2.7928460   0.0000000   0.0000000   2.7928460   2.7928460   2.7928460

  Atom        31
 IAtWgt=          16
 AtmWgt=  15.9949146
 NucSpn=           0
 AtZEff=   0.0000000
 NQMom=    0.0000000
 NMagM=    0.0000000
 Leave Link  101 at Tue Mar 19 11:08:12 2013, MaxMem= 4294967296 cpu:       1.0
 (Enter c:\g09w\l103.exe)

 GradGradGradGradGradGradGradGradGradGradGradGradGradGradGradGradGradGrad
 Berny optimization.
 Initialization pass.
                           ----------------------------
                           !    Initial Parameters    !
                           ! (Angstroms and Degrees)  !
 --------------------------                            --------------------------
 ! Name  Definition              Value          Derivative Info.                !
 --------------------------------------------------------------------------------
 ! R1    R(1,2)                  1.54           estimate D2E/DX2                !
 ! R2    R(1,17)                 1.2584         estimate D2E/DX2                !
 ! R3    R(1,20)                 1.47           estimate D2E/DX2                !
 ! R4    R(2,3)                  1.07           estimate D2E/DX2                !
 ! R5    R(2,4)                  1.54           estimate D2E/DX2                !
 ! R6    R(2,18)                 1.47           estimate D2E/DX2                !
 ! R7    R(4,5)                  1.07           estimate D2E/DX2                !
 ! R8    R(4,6)                  1.54           estimate D2E/DX2                !
 ! R9    R(4,13)                 1.54           estimate D2E/DX2                !
 ! R10   R(6,7)                  1.07           estimate D2E/DX2                !
 ! R11   R(6,8)                  1.07           estimate D2E/DX2                !
 ! R12   R(6,9)                  1.54           estimate D2E/DX2                !
 ! R13   R(9,10)                 1.07           estimate D2E/DX2                !
 ! R14   R(9,11)                 1.07           estimate D2E/DX2                !
 ! R15   R(9,12)                 1.07           estimate D2E/DX2                !
 ! R16   R(13,14)                1.07           estimate D2E/DX2                !
 ! R17   R(13,15)                1.07           estimate D2E/DX2                !
 ! R18   R(13,16)                1.07           estimate D2E/DX2                !
 ! R19   R(18,19)                1.0            estimate D2E/DX2                !
 ! R20   R(18,26)                1.47           estimate D2E/DX2                !
 ! R21   R(20,21)                1.0            estimate D2E/DX2                !
 ! R22   R(20,22)                1.47           estimate D2E/DX2                !
 ! R23   R(22,23)                1.07           estimate D2E/DX2                !
 ! R24   R(22,24)                1.07           estimate D2E/DX2                !
 ! R25   R(22,25)                1.07           estimate D2E/DX2                !
 ! R26   R(26,27)                1.54           estimate D2E/DX2                !
 ! R27   R(26,31)                1.2584         estimate D2E/DX2                !
 ! R28   R(27,28)                1.07           estimate D2E/DX2                !
 ! R29   R(27,29)                1.07           estimate D2E/DX2                !
 ! R30   R(27,30)                1.07           estimate D2E/DX2                !
 ! A1    A(2,1,17)             120.0            estimate D2E/DX2                !
 ! A2    A(2,1,20)             120.0            estimate D2E/DX2                !
 ! A3    A(17,1,20)            120.0            estimate D2E/DX2                !
 ! A4    A(1,2,3)              109.4712         estimate D2E/DX2                !
 ! A5    A(1,2,4)              109.4712         estimate D2E/DX2                !
 ! A6    A(1,2,18)             109.4712         estimate D2E/DX2                !
 ! A7    A(3,2,4)              109.4712         estimate D2E/DX2                !
 ! A8    A(3,2,18)             109.4712         estimate D2E/DX2                !
 ! A9    A(4,2,18)             109.4712         estimate D2E/DX2                !
 ! A10   A(2,4,5)              109.4712         estimate D2E/DX2                !
 ! A11   A(2,4,6)              109.4712         estimate D2E/DX2                !
 ! A12   A(2,4,13)             109.4712         estimate D2E/DX2                !
 ! A13   A(5,4,6)              109.4712         estimate D2E/DX2                !
 ! A14   A(5,4,13)             109.4712         estimate D2E/DX2                !
 ! A15   A(6,4,13)             109.4712         estimate D2E/DX2                !
 ! A16   A(4,6,7)              109.4712         estimate D2E/DX2                !
 ! A17   A(4,6,8)              109.4712         estimate D2E/DX2                !
 ! A18   A(4,6,9)              109.4712         estimate D2E/DX2                !
 ! A19   A(7,6,8)              109.4712         estimate D2E/DX2                !
 ! A20   A(7,6,9)              109.4712         estimate D2E/DX2                !
 ! A21   A(8,6,9)              109.4712         estimate D2E/DX2                !
 ! A22   A(6,9,10)             109.4712         estimate D2E/DX2                !
 ! A23   A(6,9,11)             109.4712         estimate D2E/DX2                !
 ! A24   A(6,9,12)             109.4712         estimate D2E/DX2                !
 ! A25   A(10,9,11)            109.4712         estimate D2E/DX2                !
 ! A26   A(10,9,12)            109.4712         estimate D2E/DX2                !
 ! A27   A(11,9,12)            109.4712         estimate D2E/DX2                !
 ! A28   A(4,13,14)            109.4712         estimate D2E/DX2                !
 ! A29   A(4,13,15)            109.4712         estimate D2E/DX2                !
 ! A30   A(4,13,16)            109.4712         estimate D2E/DX2                !
 ! A31   A(14,13,15)           109.4712         estimate D2E/DX2                !
 ! A32   A(14,13,16)           109.4712         estimate D2E/DX2                !
 ! A33   A(15,13,16)           109.4712         estimate D2E/DX2                !
 ! A34   A(2,18,19)            109.4712         estimate D2E/DX2                !
 ! A35   A(2,18,26)            109.4712         estimate D2E/DX2                !
 ! A36   A(19,18,26)           109.4712         estimate D2E/DX2                !
 ! A37   A(1,20,21)            109.4712         estimate D2E/DX2                !
 ! A38   A(1,20,22)            109.4712         estimate D2E/DX2                !
 ! A39   A(21,20,22)           109.4712         estimate D2E/DX2                !
 ! A40   A(20,22,23)           109.4712         estimate D2E/DX2                !
 ! A41   A(20,22,24)           109.4712         estimate D2E/DX2                !
 ! A42   A(20,22,25)           109.4712         estimate D2E/DX2                !
 ! A43   A(23,22,24)           109.4712         estimate D2E/DX2                !
 ! A44   A(23,22,25)           109.4712         estimate D2E/DX2                !
 ! A45   A(24,22,25)           109.4712         estimate D2E/DX2                !
 ! A46   A(18,26,27)           120.0            estimate D2E/DX2                !
 ! A47   A(18,26,31)           120.0            estimate D2E/DX2                !
 ! A48   A(27,26,31)           120.0            estimate D2E/DX2                !
 ! A49   A(26,27,28)           109.4712         estimate D2E/DX2                !
 ! A50   A(26,27,29)           109.4712         estimate D2E/DX2                !
 ! A51   A(26,27,30)           109.4712         estimate D2E/DX2                !
 ! A52   A(28,27,29)           109.4712         estimate D2E/DX2                !
 ! A53   A(28,27,30)           109.4712         estimate D2E/DX2                !
 ! A54   A(29,27,30)           109.4712         estimate D2E/DX2                !
 ! D1    D(17,1,2,3)          -150.0            estimate D2E/DX2                !
 ! D2    D(17,1,2,4)            90.0            estimate D2E/DX2                !
 ! D3    D(17,1,2,18)          -30.0            estimate D2E/DX2                !
 ! D4    D(20,1,2,3)            30.0            estimate D2E/DX2                !
 ! D5    D(20,1,2,4)           -90.0            estimate D2E/DX2                !
 ! D6    D(20,1,2,18)          150.0            estimate D2E/DX2                !
 ! D7    D(2,1,20,21)           90.0            estimate D2E/DX2                !
 ! D8    D(2,1,20,22)         -150.0            estimate D2E/DX2                !
 ! D9    D(17,1,20,21)         -90.0            estimate D2E/DX2                !
 ! D10   D(17,1,20,22)          30.0            estimate D2E/DX2                !
 ! D11   D(1,2,4,5)             60.0            estimate D2E/DX2                !
 ! D12   D(1,2,4,6)            -60.0            estimate D2E/DX2                !
 ! D13   D(1,2,4,13)           180.0            estimate D2E/DX2                !
 ! D14   D(3,2,4,5)            -60.0            estimate D2E/DX2                !
 ! D15   D(3,2,4,6)            180.0            estimate D2E/DX2                !
 ! D16   D(3,2,4,13)            60.0            estimate D2E/DX2                !
 ! D17   D(18,2,4,5)           180.0            estimate D2E/DX2                !
 ! D18   D(18,2,4,6)            60.0            estimate D2E/DX2                !
 ! D19   D(18,2,4,13)          -60.0            estimate D2E/DX2                !
 ! D20   D(1,2,18,19)          180.0            estimate D2E/DX2                !
 ! D21   D(1,2,18,26)          -60.0            estimate D2E/DX2                !
 ! D22   D(3,2,18,19)          -60.0            estimate D2E/DX2                !
 ! D23   D(3,2,18,26)           60.0            estimate D2E/DX2                !
 ! D24   D(4,2,18,19)           60.0            estimate D2E/DX2                !
 ! D25   D(4,2,18,26)          180.0            estimate D2E/DX2                !
 ! D26   D(2,4,6,7)            -60.0            estimate D2E/DX2                !
 ! D27   D(2,4,6,8)             60.0            estimate D2E/DX2                !
 ! D28   D(2,4,6,9)           -180.0            estimate D2E/DX2                !
 ! D29   D(5,4,6,7)            180.0            estimate D2E/DX2                !
 ! D30   D(5,4,6,8)            -60.0            estimate D2E/DX2                !
 ! D31   D(5,4,6,9)             60.0            estimate D2E/DX2                !
 ! D32   D(13,4,6,7)            60.0            estimate D2E/DX2                !
 ! D33   D(13,4,6,8)           180.0            estimate D2E/DX2                !
 ! D34   D(13,4,6,9)           -60.0            estimate D2E/DX2                !
 ! D35   D(2,4,13,14)          180.0            estimate D2E/DX2                !
 ! D36   D(2,4,13,15)          -60.0            estimate D2E/DX2                !
 ! D37   D(2,4,13,16)           60.0            estimate D2E/DX2                !
 ! D38   D(5,4,13,14)          -60.0            estimate D2E/DX2                !
 ! D39   D(5,4,13,15)           60.0            estimate D2E/DX2                !
 ! D40   D(5,4,13,16)          180.0            estimate D2E/DX2                !
 ! D41   D(6,4,13,14)           60.0            estimate D2E/DX2                !
 ! D42   D(6,4,13,15)          180.0            estimate D2E/DX2                !
 ! D43   D(6,4,13,16)          -60.0            estimate D2E/DX2                !
 ! D44   D(4,6,9,10)          -180.0            estimate D2E/DX2                !
 ! D45   D(4,6,9,11)           -60.0            estimate D2E/DX2                !
 ! D46   D(4,6,9,12)            60.0            estimate D2E/DX2                !
 ! D47   D(7,6,9,10)            60.0            estimate D2E/DX2                !
 ! D48   D(7,6,9,11)           180.0            estimate D2E/DX2                !
 ! D49   D(7,6,9,12)           -60.0            estimate D2E/DX2                !
 ! D50   D(8,6,9,10)           -60.0            estimate D2E/DX2                !
 ! D51   D(8,6,9,11)            60.0            estimate D2E/DX2                !
 ! D52   D(8,6,9,12)           180.0            estimate D2E/DX2                !
 ! D53   D(2,18,26,27)        -150.0            estimate D2E/DX2                !
 ! D54   D(2,18,26,31)          30.0            estimate D2E/DX2                !
 ! D55   D(19,18,26,27)        -30.0            estimate D2E/DX2                !
 ! D56   D(19,18,26,31)        150.0            estimate D2E/DX2                !
 ! D57   D(1,20,22,23)          60.0            estimate D2E/DX2                !
 ! D58   D(1,20,22,24)         180.0            estimate D2E/DX2                !
 ! D59   D(1,20,22,25)         -60.0            estimate D2E/DX2                !
 ! D60   D(21,20,22,23)        180.0            estimate D2E/DX2                !
 ! D61   D(21,20,22,24)        -60.0            estimate D2E/DX2                !
 ! D62   D(21,20,22,25)         60.0            estimate D2E/DX2                !
 ! D63   D(18,26,27,28)         30.0            estimate D2E/DX2                !
 ! D64   D(18,26,27,29)        150.0            estimate D2E/DX2                !
 ! D65   D(18,26,27,30)        -90.0            estimate D2E/DX2                !
 ! D66   D(31,26,27,28)       -150.0            estimate D2E/DX2                !
 ! D67   D(31,26,27,29)        -30.0            estimate D2E/DX2                !
 ! D68   D(31,26,27,30)         90.0            estimate D2E/DX2                !
 --------------------------------------------------------------------------------
 Trust Radius=3.00D-01 FncErr=1.00D-07 GrdErr=1.00D-06
 Number of steps in this run=    162 maximum allowed number of steps=    186.
 GradGradGradGradGradGradGradGradGradGradGradGradGradGradGradGradGradGrad

 Leave Link  103 at Tue Mar 19 11:08:12 2013, MaxMem= 4294967296 cpu:       0.0
 (Enter c:\g09w\l202.exe)
                          Input orientation:                          
 ---------------------------------------------------------------------
 Center     Atomic      Atomic             Coordinates (Angstroms)
 Number     Number       Type             X           Y           Z
 ---------------------------------------------------------------------
      1          6           0        1.958160   -0.488033    1.475197
      2          6           0        1.107050    0.337317    0.492339
      3          1           0        0.531422   -0.322770   -0.122345
      4          6           0        2.031446    1.190532   -0.395983
      5          1           0        2.689449    0.549806   -0.944984
      6          6           0        2.859920    2.140565    0.488703
      7          1           0        2.201917    2.781292    1.037703
      8          1           0        3.451275    1.567107    1.171597
      9          6           0        3.784316    2.993780   -0.399620
     10          1           0        4.359944    3.653867    0.215065
     11          1           0        4.442318    2.353053   -0.948620
     12          1           0        3.192960    3.567237   -1.082514
     13          6           0        1.180336    2.015883   -1.378841
     14          1           0        1.822611    2.608701   -1.996052
     15          1           0        0.604708    1.355795   -1.993526
     16          1           0        0.522334    2.656609   -0.829840
     17          8           0        2.254521   -0.013919    2.602564
     18          7           0        0.203066    1.217568    1.246574
     19          1           0       -0.349603    1.753510    0.608354
     20          7           0        2.424388   -1.829703    1.096445
     21          1           0        3.314589   -1.758548    0.646468
     22          6           0        2.549383   -2.663144    2.300875
     23          1           0        1.596868   -2.739280    2.782351
     24          1           0        2.888746   -3.639734    2.025185
     25          1           0        3.253516   -2.217074    2.971783
     26          6           0       -0.679312    0.403136    2.094518
     27          6           0       -2.095119    0.903290    2.436481
     28          1           0       -2.461973    1.510617    1.635561
     29          1           0       -2.745608    0.065153    2.575377
     30          1           0       -2.061486    1.481607    3.336101
     31          8           0       -0.277760   -0.702760    2.540972
 ---------------------------------------------------------------------
                    Distance matrix (angstroms):
                    1          2          3          4          5
     1  C    0.000000
     2  C    1.540000   0.000000
     3  H    2.148263   1.070000   0.000000
     4  C    2.514809   1.540000   2.148263   0.000000
     5  H    2.732978   2.148263   2.468846   1.070000   0.000000
     6  C    2.948875   2.514809   3.444314   1.540000   2.148263
     7  H    3.307461   2.732978   3.710993   2.148263   3.024610
     8  H    2.558352   2.732978   3.710993   2.148263   2.468846
     9  C    4.355778   3.875582   4.653783   2.514809   2.732978
    10  H    4.950943   4.653783   5.530377   3.444314   3.710993
    11  H    4.485276   4.154945   4.810184   2.732978   2.514809
    12  H    4.950943   4.154945   4.810184   2.732978   3.062243
    13  C    3.875582   2.514809   2.732978   1.540000   2.148263
    14  H    4.653783   3.444314   3.710993   2.148263   2.468846
    15  H    4.154945   2.732978   2.514809   2.148263   2.468846
    16  H    4.154945   2.732978   3.062243   2.148263   3.024610
    17  O    1.258400   2.427572   3.238764   3.239097   3.618293
    18  N    2.457987   1.470000   2.086720   2.457987   3.380966
    19  H    3.331921   2.034920   2.370879   2.644813   3.619061
    20  N    1.470000   2.606971   2.709173   3.391691   3.146387
    21  H    2.034920   3.047890   3.224678   3.380863   2.872632
    22  C    2.400500   3.788654   3.927023   4.732032   4.569274
    23  H    2.628174   3.866462   3.925807   5.072878   5.089680
    24  H    3.331921   4.619632   4.601208   5.470694   5.139442
    25  H    2.628174   4.156906   4.535616   4.944399   4.828546
    26  C    2.852017   2.400500   2.628174   3.764412   4.539673
    27  C    4.391914   3.788654   3.866462   5.013372   5.869526
    28  H    4.853647   3.927023   3.925807   4.941704   5.841191
    29  H    4.862288   4.388176   4.262290   5.737220   6.493663
    30  H    4.847680   4.408628   4.683994   5.546645   6.462764
    31  O    2.486226   2.682602   2.809346   4.188400   4.746065
                    6          7          8          9         10
     6  C    0.000000
     7  H    1.070000   0.000000
     8  H    1.070000   1.747303   0.000000
     9  C    1.540000   2.148263   2.148263   0.000000
    10  H    2.148263   2.468846   2.468846   1.070000   0.000000
    11  H    2.148263   3.024610   2.468846   1.070000   1.747303
    12  H    2.148263   2.468846   3.024610   1.070000   1.747303
    13  C    2.514809   2.732978   3.444314   2.948875   3.915793
    14  H    2.732978   3.062243   3.710993   2.558352   3.524126
    15  H    3.444314   3.710993   4.262112   3.915793   4.925525
    16  H    2.732978   2.514809   3.710993   3.307461   4.100439
    17  O    3.078428   3.203866   2.445308   4.516595   4.856502
    18  N    2.912931   2.546422   3.267823   4.323220   4.927393
    19  H    3.234991   2.784050   3.846904   4.432106   5.093709
    20  N    4.040057   4.616732   3.549431   5.230067   5.881560
    21  H    3.928701   4.690549   3.369633   4.888718   5.529296
    22  C    5.143542   5.599841   4.470314   6.388938   6.894445
    23  H    5.537961   5.821219   4.957654   6.912152   7.422795
    24  H    5.981092   6.532720   5.306246   7.119356   7.657518
    25  H    5.030867   5.461701   4.195212   6.229053   6.579637
    26  C    4.257167   3.882521   4.389575   5.732027   6.284401
    27  C    5.465995   4.893668   5.727397   6.854295   7.359905
    28  H    5.480389   4.870720   5.931691   6.734824   7.290396
    29  H    6.331151   5.849773   6.528998   7.750313   8.302939
    30  H    5.723822   5.014820   5.923084   7.100399   7.462864
    31  O    4.705458   4.532905   4.575280   6.229923   6.774831
                   11         12         13         14         15
    11  H    0.000000
    12  H    1.747303   0.000000
    13  C    3.307461   2.558352   0.000000
    14  H    2.832902   1.905571   1.070000   0.000000
    15  H    4.100439   3.524126   1.070000   1.747303   0.000000
    16  H    3.933514   2.832902   1.070000   1.747303   1.747303
    17  O    4.795823   5.223519   4.596254   5.311492   5.071690
    18  N    4.907083   4.459267   2.912931   3.882370   3.267823
    19  H    5.074065   4.324165   2.521607   3.497542   2.799762
    20  N    5.074424   5.870735   4.739539   5.442894   4.796514
    21  H    4.552070   5.600728   4.785732   5.318060   4.900219
    22  C    6.269343   7.118931   6.108019   6.839893   6.194797
    23  H    6.924492   7.566826   6.332503   7.175305   6.368910
    24  H    6.868086   7.854348   6.818509   7.506659   6.806040
    25  H    6.137497   7.063940   6.414353   7.072126   6.666023
    26  C    6.268490   5.924489   4.257167   5.277964   4.389575
    27  C    7.503253   6.887940   5.150063   6.156653   5.207570
    28  H    7.420035   6.602718   4.754822   5.722942   4.753817
    29  H    8.325822   7.804572   5.903746   6.945230   5.810786
    30  H    7.836946   7.175181   5.746785   6.692414   5.960649
    31  O    6.617732   6.588507   4.988185   5.996825   5.057476
                   16         17         18         19         20
    16  H    0.000000
    17  O    4.681196   0.000000
    18  N    2.546422   2.750226   0.000000
    19  H    1.908996   3.725875   1.000000   0.000000
    20  N    5.239788   2.365231   3.773947   4.557705   0.000000
    21  H    5.428608   2.827328   4.347295   5.075658   1.000000
    22  C    6.496929   2.682602   4.655823   5.547574   1.470000
    23  H    6.581654   2.809346   4.467432   5.357254   2.086720
    24  H    7.307190   3.725875   5.604686   6.448364   2.086720
    25  H    6.757550   2.447081   4.906971   5.859505   2.086720
    26  C    3.882521   3.006564   1.470000   2.034920   3.951541
    27  C    4.538066   4.448396   2.606971   2.666785   5.448934
    28  H    4.037027   5.050210   2.709173   2.361410   5.943476
    29  H    5.384291   5.000828   3.433431   3.529952   5.701454
    30  H    5.041014   4.626294   3.092577   3.231884   6.008652
    31  O    4.825752   2.625022   2.365231   3.126249   3.264699
                   21         22         23         24         25
    21  H    0.000000
    22  C    2.034920   0.000000
    23  H    2.911082   1.070000   0.000000
    24  H    2.370879   1.070000   1.747303   0.000000
    25  H    2.370879   1.070000   1.747303   1.747303   0.000000
    26  C    4.766652   4.457480   3.940671   5.392647   4.806478
    27  C    6.289234   5.857408   5.197952   6.756266   6.215393
    28  H    6.710768   6.555655   5.987565   7.436943   6.953271
    29  H    6.616083   5.962875   5.173469   6.765711   6.430800
    30  H    6.828976   6.285759   5.613028   7.242336   6.485539
    31  O    4.196284   3.448694   2.778472   4.349553   3.866349
                   26         27         28         29         30
    26  C    0.000000
    27  C    1.540000   0.000000
    28  H    2.148263   1.070000   0.000000
    29  H    2.148263   1.070000   1.747303   0.000000
    30  H    2.148263   1.070000   1.747303   1.747303   0.000000
    31  O    1.258400   2.427572   3.238764   2.584792   2.930080
                   31
    31  O    0.000000
 Stoichiometry    C9H18N2O2
 Framework group  C1[X(C9H18N2O2)]
 Deg. of freedom    87
 Full point group                 C1      NOp   1
 Largest Abelian subgroup         C1      NOp   1
 Largest concise Abelian subgroup C1      NOp   1
                         Standard orientation:                         
 ---------------------------------------------------------------------
 Center     Atomic      Atomic             Coordinates (Angstroms)
 Number     Number       Type             X           Y           Z
 ---------------------------------------------------------------------
      1          6           0       -0.515217    1.066582   -0.021849
      2          6           0        0.156219   -0.163715    0.616229
      3          1           0       -0.191301   -0.278346    1.621709
      4          6           0        1.684043    0.029520    0.620042
      5          1           0        1.931545    0.903967    1.184831
      6          6           0        2.184212    0.194503   -0.827098
      7          1           0        1.936710   -0.679943   -1.391887
      8          1           0        1.717695    1.049320   -1.270437
      9          6           0        3.712036    0.387738   -0.823285
     10          1           0        4.059556    0.502370   -1.828765
     11          1           0        3.959538    1.262185   -0.258496
     12          1           0        4.178554   -0.467078   -0.379945
     13          6           0        2.355480   -1.200776    1.258119
     14          1           0        3.417020   -1.066515    1.260768
     15          1           0        2.007960   -1.315407    2.263599
     16          1           0        2.107978   -2.075222    0.693330
     17          8           0       -0.727165    1.095343   -1.261938
     18          7           0       -0.183807   -1.365056   -0.159696
     19          1           0        0.252191   -2.163950    0.254640
     20          7           0       -0.908547    2.207358    0.817687
     21          1           0       -0.150977    2.857813    0.872422
     22          6           0       -2.080871    2.869106    0.227224
     23          1           0       -2.891471    2.173119    0.168658
     24          1           0       -2.367172    3.699467    0.838315
     25          1           0       -1.837294    3.216411   -0.755094
     26          6           0       -1.642184   -1.549508   -0.163336
     27          6           0       -2.238926   -2.966035   -0.257942
     28          1           0       -1.568593   -3.666423    0.194840
     29          1           0       -3.179345   -2.991665    0.251818
     30          1           0       -2.383459   -3.224228   -1.286215
     31          8           0       -2.403011   -0.549904   -0.089144
 ---------------------------------------------------------------------
 Rotational constants (GHZ):      0.8778673      0.6284621      0.4312126
 Leave Link  202 at Tue Mar 19 11:08:12 2013, MaxMem= 4294967296 cpu:       0.0
 (Enter c:\g09w\l301.exe)
 Standard basis: CC-pVTZ (5D, 7F)
 Ernie: Thresh=  0.10000D-02 Tol=  0.10000D-05 Strict=F.
 Ernie:  39 primitive shells out of 482 were deleted.
 There are   642 symmetry adapted basis functions of A   symmetry.
 Integral buffers will be    131072 words long.
 Raffenetti 2 integral format.
 Two-electron integral symmetry is turned on.
   642 basis functions,   982 primitive gaussians,   725 cartesian basis functions
    51 alpha electrons       51 beta electrons
       nuclear repulsion energy       879.8116985716 Hartrees.
 IExCor= 4235 DFT=T Ex+Corr=M06 ExCW=0 ScaHFX=  0.270000
 ScaDFX=  1.000000  1.000000  1.000000  1.000000 ScalE2=  1.000000  1.000000
 IRadAn=      5 IRanWt=     -1 IRanGd=            0 ICorTp=0
 NAtoms=   31 NActive=   31 NUniq=   31 SFac= 1.00D+00 NAtFMM=   60 NAOKFM=F Big=F
 Leave Link  301 at Tue Mar 19 11:08:13 2013, MaxMem= 4294967296 cpu:       1.0
 (Enter c:\g09w\l302.exe)
 NPDir=0 NMtPBC=     1 NCelOv=     1 NCel=       1 NClECP=     1 NCelD=      1
         NCelK=      1 NCelE2=     1 NClLst=     1 CellRange=     0.0.
 One-electron integrals computed using PRISM.
 NBasis=   642 RedAO= T  NBF=   642
 NBsUse=   642 1.00D-06 NBFU=   642
 Precomputing XC quadrature grid using
 IXCGrd= 2 IRadAn=           5 IRanWt=          -1 IRanGd=           0 AccXCQ= 0.00D+00.
 NRdTot=    2605 NPtTot=      699314 NUsed=      717965 NTot=      717997
 NSgBfM=   724   724   724   724   724 NAtAll=    31    31.
 Leave Link  302 at Tue Mar 19 11:08:19 2013, MaxMem= 4294967296 cpu:       6.0
 (Enter c:\g09w\l303.exe)
 DipDrv:  MaxL=1.
 Leave Link  303 at Tue Mar 19 11:08:20 2013, MaxMem= 4294967296 cpu:       1.0
 (Enter c:\g09w\l401.exe)
 Harris functional with IExCor= 1009 diagonalized for initial guess.
 ExpMin= 1.03D-01 ExpMax= 1.53D+04 ExpMxC= 5.22D+02 IAcc=3 IRadAn=         5 AccDes= 0.00D+00
 HarFok:  IExCor= 1009 AccDes= 0.00D+00 IRadAn=         5 IDoV= 1
 ScaDFX=  1.000000  1.000000  1.000000  1.000000
 FoFCou: FMM=F IPFlag=           0 FMFlag=      100000 FMFlg1=           0
         NFxFlg=           0 DoJE=T BraDBF=F KetDBF=T FulRan=T
         Omega=  0.000000  0.000000  1.000000  0.000000  0.000000 ICntrl=     500 IOpCl=  0
         NMat0=    1 NMatS0=    1 NMatT0=    0 NMatD0=    1 NMtDS0=    0 NMtDT0=    0
         I1Cent=           4 NGrid=           0.
 Petite list used in FoFCou.
 Harris En= -613.460853342295    
 Initial guess orbital symmetries:
       Occupied  (A) (A) (A) (A) (A) (A) (A) (A) (A) (A) (A) (A)
                 (A) (A) (A) (A) (A) (A) (A) (A) (A) (A) (A) (A)
                 (A) (A) (A) (A) (A) (A) (A) (A) (A) (A) (A) (A)
                 (A) (A) (A) (A) (A) (A) (A) (A) (A) (A) (A) (A)
                 (A) (A) (A)
       Virtual   (A) (A) (A) (A) (A) (A) (A) (A) (A) (A) (A) (A)
                 (A) (A) (A) (A) (A) (A) (A) (A) (A) (A) (A) (A)
                 (A) (A) (A) (A) (A) (A) (A) (A) (A) (A) (A) (A)
                 (A) (A) (A) (A) (A) (A) (A) (A) (A) (A) (A) (A)
                 (A) (A) (A) (A) (A) (A) (A) (A) (A) (A) (A) (A)
                 (A) (A) (A) (A) (A) (A) (A) (A) (A) (A) (A) (A)
                 (A) (A) (A) (A) (A) (A) (A) (A) (A) (A) (A) (A)
                 (A) (A) (A) (A) (A) (A) (A) (A) (A) (A) (A) (A)
                 (A) (A) (A) (A) (A) (A) (A) (A) (A) (A) (A) (A)
                 (A) (A) (A) (A) (A) (A) (A) (A) (A) (A) (A) (A)
                 (A) (A) (A) (A) (A) (A) (A) (A) (A) (A) (A) (A)
                 (A) (A) (A) (A) (A) (A) (A) (A) (A) (A) (A) (A)
                 (A) (A) (A) (A) (A) (A) (A) (A) (A) (A) (A) (A)
                 (A) (A) (A) (A) (A) (A) (A) (A) (A) (A) (A) (A)
                 (A) (A) (A) (A) (A) (A) (A) (A) (A) (A) (A) (A)
                 (A) (A) (A) (A) (A) (A) (A) (A) (A) (A) (A) (A)
                 (A) (A) (A) (A) (A) (A) (A) (A) (A) (A) (A) (A)
                 (A) (A) (A) (A) (A) (A) (A) (A) (A) (A) (A) (A)
                 (A) (A) (A) (A) (A) (A) (A) (A) (A) (A) (A) (A)
                 (A) (A) (A) (A) (A) (A) (A) (A) (A) (A) (A) (A)
                 (A) (A) (A) (A) (A) (A) (A) (A) (A) (A) (A) (A)
                 (A) (A) (A) (A) (A) (A) (A) (A) (A) (A) (A) (A)
                 (A) (A) (A) (A) (A) (A) (A) (A) (A) (A) (A) (A)
                 (A) (A) (A) (A) (A) (A) (A) (A) (A) (A) (A) (A)
                 (A) (A) (A) (A) (A) (A) (A) (A) (A) (A) (A) (A)
                 (A) (A) (A) (A) (A) (A) (A) (A) (A) (A) (A) (A)
                 (A) (A) (A) (A) (A) (A) (A) (A) (A) (A) (A) (A)
                 (A) (A) (A) (A) (A) (A) (A) (A) (A) (A) (A) (A)
                 (A) (A) (A) (A) (A) (A) (A) (A) (A) (A) (A) (A)
                 (A) (A) (A) (A) (A) (A) (A) (A) (A) (A) (A) (A)
                 (A) (A) (A) (A) (A) (A) (A) (A) (A) (A) (A) (A)
                 (A) (A) (A) (A) (A) (A) (A) (A) (A) (A) (A) (A)
                 (A) (A) (A) (A) (A) (A) (A) (A) (A) (A) (A) (A)
                 (A) (A) (A) (A) (A) (A) (A) (A) (A) (A) (A) (A)
                 (A) (A) (A) (A) (A) (A) (A) (A) (A) (A) (A) (A)
                 (A) (A) (A) (A) (A) (A) (A) (A) (A) (A) (A) (A)
                 (A) (A) (A) (A) (A) (A) (A) (A) (A) (A) (A) (A)
                 (A) (A) (A) (A) (A) (A) (A) (A) (A) (A) (A) (A)
                 (A) (A) (A) (A) (A) (A) (A) (A) (A) (A) (A) (A)
                 (A) (A) (A) (A) (A) (A) (A) (A) (A) (A) (A) (A)
                 (A) (A) (A) (A) (A) (A) (A) (A) (A) (A) (A) (A)
                 (A) (A) (A) (A) (A) (A) (A) (A) (A) (A) (A) (A)
                 (A) (A) (A) (A) (A) (A) (A) (A) (A) (A) (A) (A)
                 (A) (A) (A) (A) (A) (A) (A) (A) (A) (A) (A) (A)
                 (A) (A) (A) (A) (A) (A) (A) (A) (A) (A) (A) (A)
                 (A) (A) (A) (A) (A) (A) (A) (A) (A) (A) (A) (A)
                 (A) (A) (A) (A) (A) (A) (A) (A) (A) (A) (A) (A)
                 (A) (A) (A) (A) (A) (A) (A) (A) (A) (A) (A) (A)
                 (A) (A) (A) (A) (A) (A) (A) (A) (A) (A) (A) (A)
                 (A) (A) (A)
 The electronic state of the initial guess is 1-A.
 Leave Link  401 at Tue Mar 19 11:08:50 2013, MaxMem= 4294967296 cpu:      30.0
 (Enter c:\g09w\l502.exe)
 Closed shell SCF:
 Requested convergence on RMS density matrix=1.00D-08 within 128 cycles.
 Requested convergence on MAX density matrix=1.00D-06.
 Requested convergence on             energy=1.00D-06.
 No special actions if energy rises.
 Using DIIS extrapolation, IDIIS=  1040.
 Integral symmetry usage will be decided dynamically.
       717673 words used for storage of precomputed grid.
 IEnd=     2326686 IEndB=     2326686 NGot=  4294967296 MDV=  4293183601
 LenX=  4293183601 LenY=  4292657251
 Fock matrices will be formed incrementally for  20 cycles.
 Integral accuracy reduced to 1.0D-05 until final iterations.

 Cycle   1  Pass 0  IDiag  1:
 FoFCou: FMM=F IPFlag=           0 FMFlag=      100000 FMFlg1=           0
         NFxFlg=           0 DoJE=F BraDBF=F KetDBF=F FulRan=T
         Omega=  0.000000  0.000000  1.000000  0.000000  0.000000 ICntrl=       0 IOpCl=  0
         NMat0=    1 NMatS0=    1 NMatT0=    0 NMatD0=    1 NMtDS0=    0 NMtDT0=    0
         I1Cent=           0 NGrid=           0.
 Symmetry not used in FoFCou.
 E= -613.108959769009    
 DIIS: error= 2.30D-02 at cycle   1 NSaved=   1.
 NSaved= 1 IEnMin= 1 EnMin= -613.108959769009     IErMin= 1 ErrMin= 2.30D-02
 ErrMax= 2.30D-02 EMaxC= 1.00D-01 BMatC= 4.48D-01 BMatP= 4.48D-01
 IDIUse=3 WtCom= 7.70D-01 WtEn= 2.30D-01
 Coeff-Com:  0.100D+01
 Coeff-En:   0.100D+01
 Coeff:      0.100D+01
 Gap=     0.181 Goal=   None    Shift=    0.000
 GapD=    0.181 DampG=1.000 DampE=0.500 DampFc=0.5000 IDamp=-1.
 Damping current iteration by 5.00D-01
 RMSDP=2.15D-03 MaxDP=1.37D-01              OVMax= 2.11D-01

 Cycle   2  Pass 0  IDiag  1:
 RMSU=  7.60D-04    CP:  9.96D-01
 E= -613.239181093668     Delta-E=       -0.130221324659 Rises=F Damp=T
 DIIS: error= 5.21D-03 at cycle   2 NSaved=   2.
 NSaved= 2 IEnMin= 2 EnMin= -613.239181093668     IErMin= 2 ErrMin= 5.21D-03
 ErrMax= 5.21D-03 EMaxC= 1.00D-01 BMatC= 5.79D-02 BMatP= 4.48D-01
 IDIUse=3 WtCom= 9.48D-01 WtEn= 5.21D-02
 Coeff-Com:  0.198D+00 0.802D+00
 Coeff-En:   0.296D+00 0.704D+00
 Coeff:      0.203D+00 0.797D+00
 Gap=     0.299 Goal=   None    Shift=    0.000
 RMSDP=6.80D-04 MaxDP=3.27D-02 DE=-1.30D-01 OVMax= 1.84D-01

 Cycle   3  Pass 0  IDiag  1:
 RMSU=  4.28D-04    CP:  9.97D-01  7.12D-01
 E= -613.465712720015     Delta-E=       -0.226531626348 Rises=F Damp=F
 DIIS: error= 6.54D-03 at cycle   3 NSaved=   3.
 NSaved= 3 IEnMin= 3 EnMin= -613.465712720015     IErMin= 2 ErrMin= 5.21D-03
 ErrMax= 6.54D-03 EMaxC= 1.00D-01 BMatC= 6.14D-02 BMatP= 5.79D-02
 IDIUse=3 WtCom= 9.35D-01 WtEn= 6.54D-02
 Coeff-Com:  0.669D-01 0.504D+00 0.429D+00
 Coeff-En:   0.000D+00 0.000D+00 0.100D+01
 Coeff:      0.625D-01 0.471D+00 0.466D+00
 Gap=     0.242 Goal=   None    Shift=    0.000
 RMSDP=3.10D-04 MaxDP=1.92D-02 DE=-2.27D-01 OVMax= 5.44D-02

 Cycle   4  Pass 0  IDiag  1:
 RMSU=  2.04D-04    CP:  9.98D-01  7.66D-01  8.42D-01
 E= -613.509888951826     Delta-E=       -0.044176231810 Rises=F Damp=F
 DIIS: error= 1.56D-03 at cycle   4 NSaved=   4.
 NSaved= 4 IEnMin= 4 EnMin= -613.509888951826     IErMin= 4 ErrMin= 1.56D-03
 ErrMax= 1.56D-03 EMaxC= 1.00D-01 BMatC= 5.40D-03 BMatP= 5.79D-02
 IDIUse=3 WtCom= 9.84D-01 WtEn= 1.56D-02
 Coeff-Com:  0.839D-02 0.102D+00 0.248D+00 0.642D+00
 Coeff-En:   0.000D+00 0.000D+00 0.650D-01 0.935D+00
 Coeff:      0.826D-02 0.100D+00 0.245D+00 0.646D+00
 Gap=     0.234 Goal=   None    Shift=    0.000
 RMSDP=8.81D-05 MaxDP=4.83D-03 DE=-4.42D-02 OVMax= 1.45D-02

 Cycle   5  Pass 0  IDiag  1:
 RMSU=  4.09D-05    CP:  9.98D-01  7.56D-01  8.91D-01  7.97D-01
 E= -613.513696995893     Delta-E=       -0.003808044068 Rises=F Damp=F
 DIIS: error= 4.66D-04 at cycle   5 NSaved=   5.
 NSaved= 5 IEnMin= 5 EnMin= -613.513696995893     IErMin= 5 ErrMin= 4.66D-04
 ErrMax= 4.66D-04 EMaxC= 1.00D-01 BMatC= 3.83D-04 BMatP= 5.40D-03
 IDIUse=3 WtCom= 9.95D-01 WtEn= 4.66D-03
 Coeff-Com:  0.160D-03 0.139D-01 0.889D-01 0.326D+00 0.571D+00
 Coeff-En:   0.000D+00 0.000D+00 0.000D+00 0.000D+00 0.100D+01
 Coeff:      0.159D-03 0.138D-01 0.884D-01 0.324D+00 0.573D+00
 Gap=     0.234 Goal=   None    Shift=    0.000
 RMSDP=2.70D-05 MaxDP=1.14D-03 DE=-3.81D-03 OVMax= 4.18D-03

 Cycle   6  Pass 0  IDiag  1:
 RMSU=  1.25D-05    CP:  9.98D-01  7.62D-01  8.91D-01  8.29D-01  7.04D-01
 E= -613.514005910108     Delta-E=       -0.000308914215 Rises=F Damp=F
 DIIS: error= 1.47D-04 at cycle   6 NSaved=   6.
 NSaved= 6 IEnMin= 6 EnMin= -613.514005910108     IErMin= 6 ErrMin= 1.47D-04
 ErrMax= 1.47D-04 EMaxC= 1.00D-01 BMatC= 3.80D-05 BMatP= 3.83D-04
 IDIUse=3 WtCom= 9.99D-01 WtEn= 1.47D-03
 Coeff-Com: -0.528D-03-0.378D-02 0.175D-01 0.857D-01 0.287D+00 0.615D+00
 Coeff-En:   0.000D+00 0.000D+00 0.000D+00 0.000D+00 0.213D-02 0.998D+00
 Coeff:     -0.527D-03-0.378D-02 0.174D-01 0.855D-01 0.286D+00 0.615D+00
 Gap=     0.234 Goal=   None    Shift=    0.000
 RMSDP=7.52D-06 MaxDP=4.05D-04 DE=-3.09D-04 OVMax= 9.64D-04

 Initial convergence to 1.0D-05 achieved.  Increase integral accuracy.
 Cycle   7  Pass 1  IDiag  1:
 E= -613.514002328701     Delta-E=        0.000003581407 Rises=F Damp=F
 DIIS: error= 6.51D-05 at cycle   1 NSaved=   1.
 NSaved= 1 IEnMin= 1 EnMin= -613.514002328701     IErMin= 1 ErrMin= 6.51D-05
 ErrMax= 6.51D-05 EMaxC= 1.00D-01 BMatC= 1.06D-05 BMatP= 1.06D-05
 IDIUse=1 WtCom= 1.00D+00 WtEn= 0.00D+00
 Coeff-Com:  0.100D+01
 Coeff:      0.100D+01
 Gap=     0.234 Goal=   None    Shift=    0.000
 RMSDP=7.52D-06 MaxDP=4.05D-04 DE= 3.58D-06 OVMax= 1.18D-03

 Cycle   8  Pass 1  IDiag  1:
 RMSU=  1.92D-05    CP:  1.00D+00
 E= -613.513993901096     Delta-E=        0.000008427605 Rises=F Damp=F
 DIIS: error= 1.36D-04 at cycle   2 NSaved=   2.
 NSaved= 2 IEnMin= 1 EnMin= -613.514002328701     IErMin= 1 ErrMin= 6.51D-05
 ErrMax= 1.36D-04 EMaxC= 1.00D-01 BMatC= 2.21D-05 BMatP= 1.06D-05
 IDIUse=3 WtCom= 4.62D-01 WtEn= 5.38D-01
 Coeff-Com:  0.607D+00 0.393D+00
 Coeff-En:   0.676D+00 0.324D+00
 Coeff:      0.644D+00 0.356D+00
 Gap=     0.234 Goal=   None    Shift=    0.000
 RMSDP=4.73D-06 MaxDP=4.09D-04 DE= 8.43D-06 OVMax= 8.87D-04

 Cycle   9  Pass 1  IDiag  1:
 RMSU=  3.27D-06    CP:  1.00D+00  9.64D-01
 E= -613.514009548015     Delta-E=       -0.000015646919 Rises=F Damp=F
 DIIS: error= 2.37D-05 at cycle   3 NSaved=   3.
 NSaved= 3 IEnMin= 3 EnMin= -613.514009548015     IErMin= 3 ErrMin= 2.37D-05
 ErrMax= 2.37D-05 EMaxC= 1.00D-01 BMatC= 6.32D-07 BMatP= 1.06D-05
 IDIUse=1 WtCom= 1.00D+00 WtEn= 0.00D+00
 Coeff-Com:  0.867D-01 0.142D+00 0.771D+00
 Coeff:      0.867D-01 0.142D+00 0.771D+00
 Gap=     0.234 Goal=   None    Shift=    0.000
 RMSDP=1.50D-06 MaxDP=7.58D-05 DE=-1.56D-05 OVMax= 2.43D-04

 Cycle  10  Pass 1  IDiag  1:
 RMSU=  9.93D-07    CP:  1.00D+00  9.80D-01  9.44D-01
 E= -613.514009749660     Delta-E=       -0.000000201645 Rises=F Damp=F
 DIIS: error= 1.35D-05 at cycle   4 NSaved=   4.
 NSaved= 4 IEnMin= 4 EnMin= -613.514009749660     IErMin= 4 ErrMin= 1.35D-05
 ErrMax= 1.35D-05 EMaxC= 1.00D-01 BMatC= 3.27D-07 BMatP= 6.32D-07
 IDIUse=1 WtCom= 1.00D+00 WtEn= 0.00D+00
 Coeff-Com: -0.402D-02 0.505D-01 0.478D+00 0.476D+00
 Coeff:     -0.402D-02 0.505D-01 0.478D+00 0.476D+00
 Gap=     0.234 Goal=   None    Shift=    0.000
 RMSDP=7.27D-07 MaxDP=4.61D-05 DE=-2.02D-07 OVMax= 1.22D-04

 Cycle  11  Pass 1  IDiag  1:
 RMSU=  3.01D-07    CP:  1.00D+00  9.84D-01  9.55D-01  5.89D-01
 E= -613.514010020553     Delta-E=       -0.000000270893 Rises=F Damp=F
 DIIS: error= 2.17D-06 at cycle   5 NSaved=   5.
 NSaved= 5 IEnMin= 5 EnMin= -613.514010020553     IErMin= 5 ErrMin= 2.17D-06
 ErrMax= 2.17D-06 EMaxC= 1.00D-01 BMatC= 6.70D-09 BMatP= 3.27D-07
 IDIUse=1 WtCom= 1.00D+00 WtEn= 0.00D+00
 Coeff-Com: -0.475D-02 0.209D-01 0.213D+00 0.239D+00 0.532D+00
 Coeff:     -0.475D-02 0.209D-01 0.213D+00 0.239D+00 0.532D+00
 Gap=     0.234 Goal=   None    Shift=    0.000
 RMSDP=1.33D-07 MaxDP=6.13D-06 DE=-2.71D-07 OVMax= 1.48D-05

 Cycle  12  Pass 1  IDiag  1:
 RMSU=  8.74D-08    CP:  1.00D+00  9.85D-01  9.50D-01  6.16D-01  9.80D-01
 E= -613.514010025908     Delta-E=       -0.000000005354 Rises=F Damp=F
 DIIS: error= 6.63D-07 at cycle   6 NSaved=   6.
 NSaved= 6 IEnMin= 6 EnMin= -613.514010025908     IErMin= 6 ErrMin= 6.63D-07
 ErrMax= 6.63D-07 EMaxC= 1.00D-01 BMatC= 7.83D-10 BMatP= 6.70D-09
 IDIUse=1 WtCom= 1.00D+00 WtEn= 0.00D+00
 Coeff-Com: -0.176D-02 0.283D-02 0.339D-01 0.460D-01 0.266D+00 0.653D+00
 Coeff:     -0.176D-02 0.283D-02 0.339D-01 0.460D-01 0.266D+00 0.653D+00
 Gap=     0.234 Goal=   None    Shift=    0.000
 RMSDP=4.50D-08 MaxDP=2.61D-06 DE=-5.35D-09 OVMax= 5.89D-06

 Cycle  13  Pass 1  IDiag  1:
 RMSU=  2.38D-08    CP:  1.00D+00  9.85D-01  9.52D-01  6.22D-01  1.04D+00
                    CP:  9.67D-01
 E= -613.514010026360     Delta-E=       -0.000000000452 Rises=F Damp=F
 DIIS: error= 3.82D-07 at cycle   7 NSaved=   7.
 NSaved= 7 IEnMin= 7 EnMin= -613.514010026360     IErMin= 7 ErrMin= 3.82D-07
 ErrMax= 3.82D-07 EMaxC= 1.00D-01 BMatC= 2.25D-10 BMatP= 7.83D-10
 IDIUse=1 WtCom= 1.00D+00 WtEn= 0.00D+00
 Coeff-Com: -0.392D-03-0.118D-02-0.867D-02-0.494D-02 0.925D-01 0.406D+00
 Coeff-Com:  0.517D+00
 Coeff:     -0.392D-03-0.118D-02-0.867D-02-0.494D-02 0.925D-01 0.406D+00
 Coeff:      0.517D+00
 Gap=     0.234 Goal=   None    Shift=    0.000
 RMSDP=2.12D-08 MaxDP=1.58D-06 DE=-4.52D-10 OVMax= 4.07D-06

 Cycle  14  Pass 1  IDiag  1:
 RMSU=  9.91D-09    CP:  1.00D+00  9.85D-01  9.52D-01  6.27D-01  1.06D+00
                    CP:  9.97D-01  6.85D-01
 E= -613.514010026521     Delta-E=       -0.000000000161 Rises=F Damp=F
 DIIS: error= 1.07D-07 at cycle   8 NSaved=   8.
 NSaved= 8 IEnMin= 8 EnMin= -613.514010026521     IErMin= 8 ErrMin= 1.07D-07
 ErrMax= 1.07D-07 EMaxC= 1.00D-01 BMatC= 2.97D-11 BMatP= 2.25D-10
 IDIUse=1 WtCom= 1.00D+00 WtEn= 0.00D+00
 Coeff-Com:  0.683D-05-0.119D-02-0.105D-01-0.995D-02 0.194D-01 0.156D+00
 Coeff-Com:  0.320D+00 0.526D+00
 Coeff:      0.683D-05-0.119D-02-0.105D-01-0.995D-02 0.194D-01 0.156D+00
 Coeff:      0.320D+00 0.526D+00
 Gap=     0.234 Goal=   None    Shift=    0.000
 RMSDP=7.80D-09 MaxDP=4.37D-07 DE=-1.61D-10 OVMax= 1.24D-06

 SCF Done:  E(RM06) =  -613.514010027     A.U. after   14 cycles
             Convg  =    0.7803D-08             -V/T =  2.0077
 KE= 6.088553950981D+02 PE=-3.189353585634D+03 EE= 1.087172481938D+03
 Leave Link  502 at Tue Mar 19 11:35:59 2013, MaxMem= 4294967296 cpu:    1629.0
 (Enter c:\g09w\l601.exe)
 Copying SCF densities to generalized density rwf, IOpCl= 0 IROHF=0.

 **********************************************************************

            Population analysis using the SCF density.

 **********************************************************************

 Orbital symmetries:
       Occupied  (A) (A) (A) (A) (A) (A) (A) (A) (A) (A) (A) (A)
                 (A) (A) (A) (A) (A) (A) (A) (A) (A) (A) (A) (A)
                 (A) (A) (A) (A) (A) (A) (A) (A) (A) (A) (A) (A)
                 (A) (A) (A) (A) (A) (A) (A) (A) (A) (A) (A) (A)
                 (A) (A) (A)
       Virtual   (A) (A) (A) (A) (A) (A) (A) (A) (A) (A) (A) (A)
                 (A) (A) (A) (A) (A) (A) (A) (A) (A) (A) (A) (A)
                 (A) (A) (A) (A) (A) (A) (A) (A) (A) (A) (A) (A)
                 (A) (A) (A) (A) (A) (A) (A) (A) (A) (A) (A) (A)
                 (A) (A) (A) (A) (A) (A) (A) (A) (A) (A) (A) (A)
                 (A) (A) (A) (A) (A) (A) (A) (A) (A) (A) (A) (A)
                 (A) (A) (A) (A) (A) (A) (A) (A) (A) (A) (A) (A)
                 (A) (A) (A) (A) (A) (A) (A) (A) (A) (A) (A) (A)
                 (A) (A) (A) (A) (A) (A) (A) (A) (A) (A) (A) (A)
                 (A) (A) (A) (A) (A) (A) (A) (A) (A) (A) (A) (A)
                 (A) (A) (A) (A) (A) (A) (A) (A) (A) (A) (A) (A)
                 (A) (A) (A) (A) (A) (A) (A) (A) (A) (A) (A) (A)
                 (A) (A) (A) (A) (A) (A) (A) (A) (A) (A) (A) (A)
                 (A) (A) (A) (A) (A) (A) (A) (A) (A) (A) (A) (A)
                 (A) (A) (A) (A) (A) (A) (A) (A) (A) (A) (A) (A)
                 (A) (A) (A) (A) (A) (A) (A) (A) (A) (A) (A) (A)
                 (A) (A) (A) (A) (A) (A) (A) (A) (A) (A) (A) (A)
                 (A) (A) (A) (A) (A) (A) (A) (A) (A) (A) (A) (A)
                 (A) (A) (A) (A) (A) (A) (A) (A) (A) (A) (A) (A)
                 (A) (A) (A) (A) (A) (A) (A) (A) (A) (A) (A) (A)
                 (A) (A) (A) (A) (A) (A) (A) (A) (A) (A) (A) (A)
                 (A) (A) (A) (A) (A) (A) (A) (A) (A) (A) (A) (A)
                 (A) (A) (A) (A) (A) (A) (A) (A) (A) (A) (A) (A)
                 (A) (A) (A) (A) (A) (A) (A) (A) (A) (A) (A) (A)
                 (A) (A) (A) (A) (A) (A) (A) (A) (A) (A) (A) (A)
                 (A) (A) (A) (A) (A) (A) (A) (A) (A) (A) (A) (A)
                 (A) (A) (A) (A) (A) (A) (A) (A) (A) (A) (A) (A)
                 (A) (A) (A) (A) (A) (A) (A) (A) (A) (A) (A) (A)
                 (A) (A) (A) (A) (A) (A) (A) (A) (A) (A) (A) (A)
                 (A) (A) (A) (A) (A) (A) (A) (A) (A) (A) (A) (A)
                 (A) (A) (A) (A) (A) (A) (A) (A) (A) (A) (A) (A)
                 (A) (A) (A) (A) (A) (A) (A) (A) (A) (A) (A) (A)
                 (A) (A) (A) (A) (A) (A) (A) (A) (A) (A) (A) (A)
                 (A) (A) (A) (A) (A) (A) (A) (A) (A) (A) (A) (A)
                 (A) (A) (A) (A) (A) (A) (A) (A) (A) (A) (A) (A)
                 (A) (A) (A) (A) (A) (A) (A) (A) (A) (A) (A) (A)
                 (A) (A) (A) (A) (A) (A) (A) (A) (A) (A) (A) (A)
                 (A) (A) (A) (A) (A) (A) (A) (A) (A) (A) (A) (A)
                 (A) (A) (A) (A) (A) (A) (A) (A) (A) (A) (A) (A)
                 (A) (A) (A) (A) (A) (A) (A) (A) (A) (A) (A) (A)
                 (A) (A) (A) (A) (A) (A) (A) (A) (A) (A) (A) (A)
                 (A) (A) (A) (A) (A) (A) (A) (A) (A) (A) (A) (A)
                 (A) (A) (A) (A) (A) (A) (A) (A) (A) (A) (A) (A)
                 (A) (A) (A) (A) (A) (A) (A) (A) (A) (A) (A) (A)
                 (A) (A) (A) (A) (A) (A) (A) (A) (A) (A) (A) (A)
                 (A) (A) (A) (A) (A) (A) (A) (A) (A) (A) (A) (A)
                 (A) (A) (A) (A) (A) (A) (A) (A) (A) (A) (A) (A)
                 (A) (A) (A) (A) (A) (A) (A) (A) (A) (A) (A) (A)
                 (A) (A) (A) (A) (A) (A) (A) (A) (A) (A) (A) (A)
                 (A) (A) (A)
 The electronic state is 1-A.
 Alpha  occ. eigenvalues --  -19.19897 -19.18619 -14.42291 -14.39034 -10.36622
 Alpha  occ. eigenvalues --  -10.35198 -10.29110 -10.25887 -10.25242 -10.23800
 Alpha  occ. eigenvalues --  -10.23712 -10.22618 -10.22015  -1.05402  -1.03030
 Alpha  occ. eigenvalues --   -0.93971  -0.90471  -0.83246  -0.77015  -0.74625
 Alpha  occ. eigenvalues --   -0.72652  -0.67783  -0.64897  -0.59589  -0.58972
 Alpha  occ. eigenvalues --   -0.55736  -0.52293  -0.50762  -0.49962  -0.47500
 Alpha  occ. eigenvalues --   -0.47086  -0.45779  -0.45716  -0.44258  -0.43692
 Alpha  occ. eigenvalues --   -0.43192  -0.41945  -0.41347  -0.40164  -0.39811
 Alpha  occ. eigenvalues --   -0.38597  -0.38178  -0.37602  -0.35919  -0.35128
 Alpha  occ. eigenvalues --   -0.34561  -0.33270  -0.29534  -0.27312  -0.26891
 Alpha  occ. eigenvalues --   -0.24997
 Alpha virt. eigenvalues --   -0.01624   0.00041   0.01904   0.02711   0.05222
 Alpha virt. eigenvalues --    0.06048   0.06862   0.07922   0.08703   0.09354
 Alpha virt. eigenvalues --    0.10031   0.10521   0.11041   0.11141   0.11781
 Alpha virt. eigenvalues --    0.12558   0.12894   0.14137   0.14462   0.14707
 Alpha virt. eigenvalues --    0.16419   0.17228   0.18624   0.19718   0.19902
 Alpha virt. eigenvalues --    0.20821   0.21295   0.21934   0.23411   0.24701
 Alpha virt. eigenvalues --    0.25489   0.26334   0.27024   0.27989   0.28193
 Alpha virt. eigenvalues --    0.28526   0.29645   0.30412   0.31339   0.32441
 Alpha virt. eigenvalues --    0.32723   0.33512   0.34366   0.35962   0.36238
 Alpha virt. eigenvalues --    0.37336   0.38193   0.39330   0.39649   0.39836
 Alpha virt. eigenvalues --    0.40525   0.40743   0.41269   0.41441   0.41935
 Alpha virt. eigenvalues --    0.42055   0.42085   0.42657   0.43158   0.43603
 Alpha virt. eigenvalues --    0.44100   0.44714   0.45179   0.45206   0.46022
 Alpha virt. eigenvalues --    0.46108   0.46847   0.47863   0.48449   0.48916
 Alpha virt. eigenvalues --    0.49193   0.50344   0.51198   0.51709   0.51966
 Alpha virt. eigenvalues --    0.53805   0.54355   0.54872   0.56135   0.56715
 Alpha virt. eigenvalues --    0.58085   0.58537   0.60325   0.61047   0.62472
 Alpha virt. eigenvalues --    0.63847   0.64813   0.66012   0.66107   0.68898
 Alpha virt. eigenvalues --    0.69356   0.70464   0.71784   0.72155   0.73593
 Alpha virt. eigenvalues --    0.74351   0.75710   0.77334   0.78986   0.80605
 Alpha virt. eigenvalues --    0.81689   0.82382   0.83156   0.83456   0.84001
 Alpha virt. eigenvalues --    0.85851   0.86374   0.86528   0.87719   0.88715
 Alpha virt. eigenvalues --    0.89652   0.90282   0.90769   0.92092   0.92985
 Alpha virt. eigenvalues --    0.93845   0.94106   0.95329   0.95612   0.96452
 Alpha virt. eigenvalues --    0.97916   0.98836   0.98884   0.99728   1.00434
 Alpha virt. eigenvalues --    1.01334   1.02110   1.02952   1.03772   1.03986
 Alpha virt. eigenvalues --    1.04453   1.04907   1.06305   1.06957   1.07611
 Alpha virt. eigenvalues --    1.09314   1.10419   1.10925   1.12276   1.12694
 Alpha virt. eigenvalues --    1.13478   1.13835   1.15869   1.16813   1.17382
 Alpha virt. eigenvalues --    1.17739   1.18539   1.19032   1.19984   1.20326
 Alpha virt. eigenvalues --    1.21063   1.21697   1.21994   1.23432   1.23718
 Alpha virt. eigenvalues --    1.24539   1.25318   1.26014   1.26863   1.27461
 Alpha virt. eigenvalues --    1.27908   1.28758   1.29675   1.30617   1.31946
 Alpha virt. eigenvalues --    1.32051   1.32478   1.32993   1.33390   1.35396
 Alpha virt. eigenvalues --    1.36200   1.36818   1.38025   1.38751   1.39292
 Alpha virt. eigenvalues --    1.41217   1.42583   1.42833   1.43858   1.44496
 Alpha virt. eigenvalues --    1.46179   1.46755   1.47839   1.49026   1.49884
 Alpha virt. eigenvalues --    1.50434   1.51227   1.54006   1.54956   1.55665
 Alpha virt. eigenvalues --    1.57388   1.58250   1.59260   1.60550   1.61755
 Alpha virt. eigenvalues --    1.62828   1.64109   1.67079   1.68595   1.70844
 Alpha virt. eigenvalues --    1.71843   1.74364   1.76219   1.76815   1.78231
 Alpha virt. eigenvalues --    1.81071   1.81567   1.82870   1.83851   1.86202
 Alpha virt. eigenvalues --    1.89281   1.92390   1.93968   1.97141   2.04039
 Alpha virt. eigenvalues --    2.04422   2.10830   2.12525   2.14418   2.15750
 Alpha virt. eigenvalues --    2.17904   2.20033   2.21126   2.23980   2.24766
 Alpha virt. eigenvalues --    2.26985   2.27441   2.28302   2.29920   2.32461
 Alpha virt. eigenvalues --    2.34343   2.35941   2.36929   2.39642   2.39725
 Alpha virt. eigenvalues --    2.40355   2.42031   2.42564   2.43610   2.46126
 Alpha virt. eigenvalues --    2.46426   2.48133   2.49026   2.49934   2.51111
 Alpha virt. eigenvalues --    2.52266   2.53328   2.53947   2.55714   2.57177
 Alpha virt. eigenvalues --    2.58275   2.58528   2.60023   2.60384   2.61344
 Alpha virt. eigenvalues --    2.63398   2.63491   2.65263   2.67358   2.68242
 Alpha virt. eigenvalues --    2.69119   2.69989   2.70668   2.71396   2.72006
 Alpha virt. eigenvalues --    2.72863   2.73961   2.74639   2.75292   2.76176
 Alpha virt. eigenvalues --    2.76813   2.77563   2.78384   2.79552   2.80551
 Alpha virt. eigenvalues --    2.82044   2.84122   2.84748   2.85827   2.86661
 Alpha virt. eigenvalues --    2.87008   2.88446   2.88983   2.90040   2.91208
 Alpha virt. eigenvalues --    2.92864   2.93561   2.94230   2.94420   2.94681
 Alpha virt. eigenvalues --    2.97415   2.97638   2.98696   2.99523   3.00103
 Alpha virt. eigenvalues --    3.00306   3.01374   3.01731   3.03339   3.03672
 Alpha virt. eigenvalues --    3.04909   3.05419   3.05730   3.06927   3.07525
 Alpha virt. eigenvalues --    3.07976   3.08404   3.09347   3.10503   3.10970
 Alpha virt. eigenvalues --    3.11945   3.12656   3.13902   3.14989   3.15736
 Alpha virt. eigenvalues --    3.15977   3.17156   3.18791   3.19528   3.20438
 Alpha virt. eigenvalues --    3.21890   3.22553   3.23499   3.24716   3.25421
 Alpha virt. eigenvalues --    3.27331   3.27736   3.28273   3.28715   3.30204
 Alpha virt. eigenvalues --    3.30974   3.32019   3.33421   3.33764   3.34172
 Alpha virt. eigenvalues --    3.35342   3.36778   3.37048   3.38348   3.39204
 Alpha virt. eigenvalues --    3.40188   3.40982   3.41812   3.42702   3.43211
 Alpha virt. eigenvalues --    3.43655   3.44221   3.45613   3.46060   3.46783
 Alpha virt. eigenvalues --    3.47625   3.48208   3.48545   3.50365   3.50737
 Alpha virt. eigenvalues --    3.51310   3.53123   3.53963   3.55363   3.55822
 Alpha virt. eigenvalues --    3.56327   3.57686   3.58225   3.61055   3.61568
 Alpha virt. eigenvalues --    3.61736   3.62953   3.64190   3.65315   3.66782
 Alpha virt. eigenvalues --    3.68054   3.68194   3.69213   3.70118   3.71977
 Alpha virt. eigenvalues --    3.72653   3.74182   3.75588   3.75867   3.76944
 Alpha virt. eigenvalues --    3.77465   3.78488   3.79029   3.80402   3.81836
 Alpha virt. eigenvalues --    3.82387   3.83708   3.84408   3.84855   3.85873
 Alpha virt. eigenvalues --    3.86574   3.86921   3.88251   3.88409   3.89330
 Alpha virt. eigenvalues --    3.89827   3.90744   3.92215   3.93117   3.94220
 Alpha virt. eigenvalues --    3.95070   3.95766   3.97137   3.98219   3.98679
 Alpha virt. eigenvalues --    3.99860   4.01960   4.02452   4.04210   4.04784
 Alpha virt. eigenvalues --    4.05669   4.06465   4.06991   4.07820   4.08963
 Alpha virt. eigenvalues --    4.10182   4.11165   4.11449   4.11919   4.13662
 Alpha virt. eigenvalues --    4.15218   4.15979   4.16152   4.18396   4.18937
 Alpha virt. eigenvalues --    4.19550   4.20736   4.21446   4.22788   4.23127
 Alpha virt. eigenvalues --    4.23730   4.25519   4.26050   4.27515   4.28111
 Alpha virt. eigenvalues --    4.28271   4.30445   4.30945   4.31996   4.32349
 Alpha virt. eigenvalues --    4.33437   4.34064   4.35560   4.36485   4.37003
 Alpha virt. eigenvalues --    4.39660   4.42098   4.42768   4.43871   4.44753
 Alpha virt. eigenvalues --    4.46064   4.48320   4.50801   4.51267   4.52144
 Alpha virt. eigenvalues --    4.55359   4.56082   4.59729   4.60653   4.62396
 Alpha virt. eigenvalues --    4.63133   4.64213   4.67210   4.69890   4.70736
 Alpha virt. eigenvalues --    4.72134   4.73418   4.74606   4.76179   4.76460
 Alpha virt. eigenvalues --    4.77811   4.78511   4.79659   4.80569   4.81507
 Alpha virt. eigenvalues --    4.83087   4.84064   4.85174   4.85827   4.86559
 Alpha virt. eigenvalues --    4.88608   4.89284   4.91639   4.92682   4.94047
 Alpha virt. eigenvalues --    4.95206   4.96507   4.98184   4.99368   5.00460
 Alpha virt. eigenvalues --    5.00665   5.03519   5.05519   5.06295   5.07302
 Alpha virt. eigenvalues --    5.08771   5.09526   5.10129   5.11050   5.12142
 Alpha virt. eigenvalues --    5.12993   5.14339   5.14875   5.16573   5.16654
 Alpha virt. eigenvalues --    5.17530   5.18428   5.20718   5.21206   5.21426
 Alpha virt. eigenvalues --    5.22259   5.22960   5.24043   5.25438   5.25920
 Alpha virt. eigenvalues --    5.26610   5.27464   5.28725   5.29706   5.30670
 Alpha virt. eigenvalues --    5.32217   5.33580   5.33833   5.34653   5.35818
 Alpha virt. eigenvalues --    5.36814   5.37613   5.39377   5.40882   5.41820
 Alpha virt. eigenvalues --    5.43597   5.46823   5.49133   5.50619   5.53288
 Alpha virt. eigenvalues --    5.54859   5.61201   5.62254   5.63978   5.66504
 Alpha virt. eigenvalues --    5.68417   5.70355   5.73787   5.75210   5.76234
 Alpha virt. eigenvalues --    5.77411   5.77927   5.80620   5.81708   5.84860
 Alpha virt. eigenvalues --    5.86854   5.87189   5.88287   5.90449   5.91774
 Alpha virt. eigenvalues --    5.93885   5.96329   5.98266   5.99789   6.00451
 Alpha virt. eigenvalues --    6.11194   6.12481   6.19103   6.23954   6.46646
 Alpha virt. eigenvalues --    6.51012   6.53142   6.55005   6.57354   6.59482
 Alpha virt. eigenvalues --    6.61618   6.63696   6.87959   6.95384   7.09422
 Alpha virt. eigenvalues --    7.11945   7.14192   7.17674   8.97391   9.35235
 Alpha virt. eigenvalues --   11.61055  11.83390  12.00382  12.20684  12.70795
 Alpha virt. eigenvalues --   13.01170  13.19241  13.49494  13.73749  13.82633
 Alpha virt. eigenvalues --   14.04325
          Condensed to atoms (all electrons):
              1          2          3          4          5          6
     1  C    4.763703   0.209050  -0.044199  -0.027983  -0.010786  -0.010444
     2  C    0.209050   5.261541   0.440708   0.309040  -0.028214  -0.076366
     3  H   -0.044199   0.440708   0.436880  -0.030509  -0.000398   0.009441
     4  C   -0.027983   0.309040  -0.030509   5.328007   0.414506   0.243942
     5  H   -0.010786  -0.028214  -0.000398   0.414506   0.462787  -0.032463
     6  C   -0.010444  -0.076366   0.009441   0.243942  -0.032463   5.296534
     7  H   -0.004487  -0.001783   0.000770  -0.044524   0.004452   0.416125
     8  H    0.008557  -0.003691  -0.000448  -0.035309  -0.002628   0.411633
     9  C   -0.000529   0.004450   0.000016  -0.047983  -0.003228   0.231721
    10  H   -0.000035  -0.000378   0.000023   0.007259  -0.000106  -0.037219
    11  H    0.000100   0.001107  -0.000053  -0.000080   0.002860  -0.042436
    12  H    0.000001  -0.000334  -0.000024  -0.015416   0.000410  -0.035170
    13  C    0.002839  -0.056546  -0.009386   0.252161  -0.018935  -0.061184
    14  H   -0.000140   0.006588  -0.000189  -0.026501  -0.004265  -0.009831
    15  H    0.000677   0.001809   0.003058  -0.040280  -0.004095   0.007377
    16  H   -0.001160  -0.011154   0.000890  -0.051153   0.005364  -0.001027
    17  O    0.635656  -0.082707   0.003865  -0.006230   0.000838   0.007262
    18  N   -0.050456   0.237050  -0.036901  -0.034316   0.005075  -0.016614
    19  H    0.011163  -0.026345  -0.007371  -0.009719  -0.000310  -0.001483
    20  N    0.356569  -0.093642   0.010757   0.001236   0.002672   0.001234
    21  H   -0.007057   0.003382  -0.000459  -0.001172   0.000223   0.000567
    22  C   -0.052886   0.006795  -0.000491  -0.000047  -0.000170  -0.000106
    23  H   -0.001414  -0.000309  -0.000217  -0.000016  -0.000036  -0.000007
    24  H    0.005807  -0.000152  -0.000165   0.000051  -0.000004  -0.000007
    25  H   -0.009220   0.003294   0.000316  -0.000229   0.000134  -0.000050
    26  C   -0.011115  -0.050607  -0.008744   0.004313   0.000012   0.001184
    27  C   -0.003126   0.005289   0.002446  -0.000248   0.000020   0.000065
    28  H    0.000339  -0.000382  -0.000392  -0.000129   0.000000   0.000015
    29  H   -0.000101   0.000077   0.000159   0.000029  -0.000001   0.000000
    30  H    0.000152  -0.000157  -0.000054   0.000023  -0.000001   0.000006
    31  O   -0.000252   0.028431   0.005959   0.001346   0.000006  -0.000205
              7          8          9         10         11         12
     1  C   -0.004487   0.008557  -0.000529  -0.000035   0.000100   0.000001
     2  C   -0.001783  -0.003691   0.004450  -0.000378   0.001107  -0.000334
     3  H    0.000770  -0.000448   0.000016   0.000023  -0.000053  -0.000024
     4  C   -0.044524  -0.035309  -0.047983   0.007259  -0.000080  -0.015416
     5  H    0.004452  -0.002628  -0.003228  -0.000106   0.002860   0.000410
     6  C    0.416125   0.411633   0.231721  -0.037219  -0.042436  -0.035170
     7  H    0.473264  -0.012593  -0.028650  -0.002726   0.005055  -0.003967
     8  H   -0.012593   0.479132  -0.030950  -0.003569  -0.002977   0.004653
     9  C   -0.028650  -0.030950   5.051771   0.416577   0.402288   0.409772
    10  H   -0.002726  -0.003569   0.416577   0.541682  -0.021145  -0.022098
    11  H    0.005055  -0.002977   0.402288  -0.021145   0.571983  -0.038220
    12  H   -0.003967   0.004653   0.409772  -0.022098  -0.038220   0.567378
    13  C   -0.006422   0.007430  -0.004078   0.000262  -0.002279   0.002501
    14  H   -0.000006  -0.000246  -0.002472   0.000267   0.000793  -0.002412
    15  H    0.000079  -0.000300   0.000313   0.000031  -0.000155   0.000314
    16  H    0.004224   0.000312  -0.002066  -0.000098   0.000291  -0.000363
    17  O    0.001051   0.004270   0.001027   0.000019  -0.000004  -0.000026
    18  N    0.019922  -0.000247   0.000736   0.000025  -0.000066  -0.000080
    19  H   -0.002158   0.000117  -0.000068   0.000004  -0.000007  -0.000020
    20  N    0.000052  -0.001579   0.000117   0.000000  -0.000012   0.000001
    21  H    0.000024   0.000117  -0.000140   0.000000   0.000013   0.000003
    22  C   -0.000018   0.000056  -0.000003   0.000000  -0.000001   0.000000
    23  H    0.000000   0.000011   0.000000   0.000000   0.000000   0.000000
    24  H    0.000000   0.000003   0.000000   0.000000   0.000000   0.000000
    25  H   -0.000012   0.000211  -0.000003   0.000000  -0.000001   0.000000
    26  C    0.000316   0.000023   0.000056  -0.000002   0.000006  -0.000009
    27  C    0.000236   0.000020   0.000004   0.000000   0.000000  -0.000001
    28  H   -0.000023  -0.000004  -0.000002   0.000000   0.000000   0.000000
    29  H    0.000005  -0.000001   0.000000   0.000000   0.000000   0.000000
    30  H   -0.000009  -0.000003   0.000000   0.000000   0.000000   0.000000
    31  O   -0.000046   0.000260   0.000000   0.000000   0.000000   0.000000
             13         14         15         16         17         18
     1  C    0.002839  -0.000140   0.000677  -0.001160   0.635656  -0.050456
     2  C   -0.056546   0.006588   0.001809  -0.011154  -0.082707   0.237050
     3  H   -0.009386  -0.000189   0.003058   0.000890   0.003865  -0.036901
     4  C    0.252161  -0.026501  -0.040280  -0.051153  -0.006230  -0.034316
     5  H   -0.018935  -0.004265  -0.004095   0.005364   0.000838   0.005075
     6  C   -0.061184  -0.009831   0.007377  -0.001027   0.007262  -0.016614
     7  H   -0.006422  -0.000006   0.000079   0.004224   0.001051   0.019922
     8  H    0.007430  -0.000246  -0.000300   0.000312   0.004270  -0.000247
     9  C   -0.004078  -0.002472   0.000313  -0.002066   0.001027   0.000736
    10  H    0.000262   0.000267   0.000031  -0.000098   0.000019   0.000025
    11  H   -0.002279   0.000793  -0.000155   0.000291  -0.000004  -0.000066
    12  H    0.002501  -0.002412   0.000314  -0.000363  -0.000026  -0.000080
    13  C    5.176134   0.411337   0.406267   0.409692  -0.000373  -0.006997
    14  H    0.411337   0.493100  -0.010312  -0.024374   0.000004   0.000191
    15  H    0.406267  -0.010312   0.513763  -0.029072   0.000005  -0.001142
    16  H    0.409692  -0.024374  -0.029072   0.544955  -0.000087   0.001956
    17  O   -0.000373   0.000004   0.000005  -0.000087   7.891294   0.001875
    18  N   -0.006997   0.000191  -0.001142   0.001956   0.001875   6.589709
    19  H    0.003426   0.000460  -0.000326  -0.000706   0.000215   0.375020
    20  N   -0.000361   0.000006  -0.000073  -0.000047  -0.100813   0.002923
    21  H    0.000172  -0.000007   0.000007   0.000010   0.000067  -0.000185
    22  C    0.000013   0.000000   0.000000   0.000000  -0.010963  -0.000289
    23  H    0.000002   0.000000   0.000001   0.000000  -0.001940   0.000029
    24  H    0.000000   0.000000   0.000000   0.000000   0.001174   0.000006
    25  H    0.000001   0.000000  -0.000001   0.000000   0.019301   0.000032
    26  C    0.000776   0.000088  -0.000216   0.000346   0.010563   0.304950
    27  C   -0.000076   0.000000   0.000012   0.000172  -0.000249  -0.059845
    28  H    0.000084  -0.000007   0.000029  -0.000064   0.000013   0.005292
    29  H   -0.000011   0.000000   0.000001  -0.000002   0.000024   0.004061
    30  H   -0.000004   0.000000   0.000000  -0.000011   0.000147   0.000898
    31  O    0.000030   0.000004  -0.000002   0.000040  -0.027388  -0.100536
             19         20         21         22         23         24
     1  C    0.011163   0.356569  -0.007057  -0.052886  -0.001414   0.005807
     2  C   -0.026345  -0.093642   0.003382   0.006795  -0.000309  -0.000152
     3  H   -0.007371   0.010757  -0.000459  -0.000491  -0.000217  -0.000165
     4  C   -0.009719   0.001236  -0.001172  -0.000047  -0.000016   0.000051
     5  H   -0.000310   0.002672   0.000223  -0.000170  -0.000036  -0.000004
     6  C   -0.001483   0.001234   0.000567  -0.000106  -0.000007  -0.000007
     7  H   -0.002158   0.000052   0.000024  -0.000018   0.000000   0.000000
     8  H    0.000117  -0.001579   0.000117   0.000056   0.000011   0.000003
     9  C   -0.000068   0.000117  -0.000140  -0.000003   0.000000   0.000000
    10  H    0.000004   0.000000   0.000000   0.000000   0.000000   0.000000
    11  H   -0.000007  -0.000012   0.000013  -0.000001   0.000000   0.000000
    12  H   -0.000020   0.000001   0.000003   0.000000   0.000000   0.000000
    13  C    0.003426  -0.000361   0.000172   0.000013   0.000002   0.000000
    14  H    0.000460   0.000006  -0.000007   0.000000   0.000000   0.000000
    15  H   -0.000326  -0.000073   0.000007   0.000000   0.000001   0.000000
    16  H   -0.000706  -0.000047   0.000010   0.000000   0.000000   0.000000
    17  O    0.000215  -0.100813   0.000067  -0.010963  -0.001940   0.001174
    18  N    0.375020   0.002923  -0.000185  -0.000289   0.000029   0.000006
    19  H    0.520976  -0.000132   0.000016   0.000036  -0.000008  -0.000001
    20  N   -0.000132   6.514387   0.362097   0.276391  -0.029473  -0.024554
    21  H    0.000016   0.362097   0.573983  -0.027386   0.006501  -0.004563
    22  C    0.000036   0.276391  -0.027386   4.826594   0.400972   0.399263
    23  H   -0.000008  -0.029473   0.006501   0.400972   0.556506  -0.020883
    24  H   -0.000001  -0.024554  -0.004563   0.399263  -0.020883   0.588597
    25  H    0.000000  -0.061230  -0.009261   0.396253  -0.044128  -0.037031
    26  C   -0.002891   0.002567  -0.000048  -0.000121  -0.000201  -0.000008
    27  C   -0.006261  -0.000020   0.000001  -0.000038   0.000054   0.000000
    28  H    0.003080   0.000004   0.000000   0.000002  -0.000003   0.000000
    29  H   -0.000714   0.000001   0.000000  -0.000003   0.000021   0.000000
    30  H    0.000450   0.000004   0.000000   0.000001  -0.000001   0.000000
    31  O    0.002470  -0.005434   0.000202  -0.005575   0.006209   0.000032
             25         26         27         28         29         30
     1  C   -0.009220  -0.011115  -0.003126   0.000339  -0.000101   0.000152
     2  C    0.003294  -0.050607   0.005289  -0.000382   0.000077  -0.000157
     3  H    0.000316  -0.008744   0.002446  -0.000392   0.000159  -0.000054
     4  C   -0.000229   0.004313  -0.000248  -0.000129   0.000029   0.000023
     5  H    0.000134   0.000012   0.000020   0.000000  -0.000001  -0.000001
     6  C   -0.000050   0.001184   0.000065   0.000015   0.000000   0.000006
     7  H   -0.000012   0.000316   0.000236  -0.000023   0.000005  -0.000009
     8  H    0.000211   0.000023   0.000020  -0.000004  -0.000001  -0.000003
     9  C   -0.000003   0.000056   0.000004  -0.000002   0.000000   0.000000
    10  H    0.000000  -0.000002   0.000000   0.000000   0.000000   0.000000
    11  H   -0.000001   0.000006   0.000000   0.000000   0.000000   0.000000
    12  H    0.000000  -0.000009  -0.000001   0.000000   0.000000   0.000000
    13  C    0.000001   0.000776  -0.000076   0.000084  -0.000011  -0.000004
    14  H    0.000000   0.000088   0.000000  -0.000007   0.000000   0.000000
    15  H   -0.000001  -0.000216   0.000012   0.000029   0.000001   0.000000
    16  H    0.000000   0.000346   0.000172  -0.000064  -0.000002  -0.000011
    17  O    0.019301   0.010563  -0.000249   0.000013   0.000024   0.000147
    18  N    0.000032   0.304950  -0.059845   0.005292   0.004061   0.000898
    19  H    0.000000  -0.002891  -0.006261   0.003080  -0.000714   0.000450
    20  N   -0.061230   0.002567  -0.000020   0.000004   0.000001   0.000004
    21  H   -0.009261  -0.000048   0.000001   0.000000   0.000000   0.000000
    22  C    0.396253  -0.000121  -0.000038   0.000002  -0.000003   0.000001
    23  H   -0.044128  -0.000201   0.000054  -0.000003   0.000021  -0.000001
    24  H   -0.037031  -0.000008   0.000000   0.000000   0.000000   0.000000
    25  H    0.627944  -0.000090   0.000003   0.000000  -0.000001  -0.000001
    26  C   -0.000090   4.553292   0.289910  -0.039196  -0.029495  -0.024040
    27  C    0.000003   0.289910   4.930535   0.385005   0.395303   0.387048
    28  H    0.000000  -0.039196   0.385005   0.612115  -0.029617  -0.029239
    29  H   -0.000001  -0.029495   0.395303  -0.029617   0.555913  -0.017890
    30  H   -0.000001  -0.024040   0.387048  -0.029239  -0.017890   0.562834
    31  O    0.000210   0.651070  -0.057749   0.002940   0.005465  -0.000267
             31
     1  C   -0.000252
     2  C    0.028431
     3  H    0.005959
     4  C    0.001346
     5  H    0.000006
     6  C   -0.000205
     7  H   -0.000046
     8  H    0.000260
     9  C    0.000000
    10  H    0.000000
    11  H    0.000000
    12  H    0.000000
    13  C    0.000030
    14  H    0.000004
    15  H   -0.000002
    16  H    0.000040
    17  O   -0.027388
    18  N   -0.100536
    19  H    0.002470
    20  N   -0.005434
    21  H    0.000202
    22  C   -0.005575
    23  H    0.006209
    24  H    0.000032
    25  H    0.000210
    26  C    0.651070
    27  C   -0.057749
    28  H    0.002940
    29  H    0.005465
    30  H   -0.000267
    31  O    7.863379
 Mulliken atomic charges:
              1
     1  C    0.240778
     2  C   -0.085843
     3  H    0.224712
     4  C   -0.190074
     5  H    0.206280
     6  C   -0.302496
     7  H    0.181849
     8  H    0.177740
     9  C   -0.398678
    10  H    0.121227
    11  H    0.122941
    12  H    0.133110
    13  C   -0.506475
    14  H    0.167924
    15  H    0.152229
    16  H    0.153131
    17  O   -0.347892
    18  N   -0.242076
    19  H    0.141090
    20  N   -0.213647
    21  H    0.102894
    22  C   -0.208278
    23  H    0.128330
    24  H    0.092437
    25  H    0.113559
    26  C    0.347312
    27  C   -0.268513
    28  H    0.090140
    29  H    0.116777
    30  H    0.120115
    31  O   -0.370599
 Sum of Mulliken atomic charges =   0.00000
 Mulliken charges with hydrogens summed into heavy atoms:
              1
[...]
 Alpha virt. eigenvalues --    4.75488   4.76455   4.77386   4.77687   4.77797
 Alpha virt. eigenvalues --    4.79507   4.80708   4.82043   4.82641   4.83663
 Alpha virt. eigenvalues --    4.86197   4.87371   4.88165   4.90102   4.90657
 Alpha virt. eigenvalues --    4.90942   4.91974   4.94119   4.95353   4.97064
 Alpha virt. eigenvalues --    4.97433   4.98211   5.00415   5.00993   5.02090
 Alpha virt. eigenvalues --    5.02662   5.03460   5.04436   5.06202   5.06702
 Alpha virt. eigenvalues --    5.08008   5.09198   5.11713   5.12629   5.13325
 Alpha virt. eigenvalues --    5.14299   5.15698   5.16593   5.18064   5.18919
 Alpha virt. eigenvalues --    5.20088   5.20771   5.22242   5.22795   5.23858
 Alpha virt. eigenvalues --    5.24232   5.26183   5.27064   5.28199   5.28763
 Alpha virt. eigenvalues --    5.29673   5.31532   5.31719   5.32841   5.33514
 Alpha virt. eigenvalues --    5.34338   5.35322   5.36808   5.39340   5.41378
 Alpha virt. eigenvalues --    5.42116   5.43999   5.49813   5.53175   5.58811
 Alpha virt. eigenvalues --    5.59811   5.63278   5.65557   5.66613   5.69071
 Alpha virt. eigenvalues --    5.70008   5.72866   5.74918   5.77408   5.79040
 Alpha virt. eigenvalues --    5.80461   5.81239   5.84619   5.85991   5.86224
 Alpha virt. eigenvalues --    5.87610   5.90493   5.91260   5.95376   5.97870
 Alpha virt. eigenvalues --    5.99453   5.99980   6.01622   6.02690   6.05243
 Alpha virt. eigenvalues --    6.25739   6.28393   6.35113   6.38772   6.48645
 Alpha virt. eigenvalues --    6.49987   6.53236   6.56768   6.64763   6.71481
 Alpha virt. eigenvalues --    6.87769   6.92559   6.92993   6.93843   7.10873
 Alpha virt. eigenvalues --    7.11590   7.16252   7.19692   9.57589   9.88660
 Alpha virt. eigenvalues --   11.64978  12.29018  12.63072  12.78956  12.90632
 Alpha virt. eigenvalues --   13.27258  13.43452  13.48437  13.71520  13.84584
 Alpha virt. eigenvalues --   13.93388
          Condensed to atoms (all electrons):
              1          2          3          4          5          6
     1  C    4.603002   0.192719  -0.019813  -0.035507  -0.010285   0.003466
     2  C    0.192719   5.512893   0.436924   0.212411  -0.033607  -0.068030
     3  H   -0.019813   0.436924   0.437669  -0.069007  -0.004313   0.008501
     4  C   -0.035507   0.212411  -0.069007   5.460704   0.409112   0.231315
     5  H   -0.010285  -0.033607  -0.004313   0.409112   0.486602  -0.033536
     6  C    0.003466  -0.068030   0.008501   0.231315  -0.033536   5.289426
     7  H   -0.003700   0.002636   0.000367  -0.057270   0.007165   0.411156
     8  H    0.008612  -0.005827   0.000056  -0.040493  -0.003636   0.413129
     9  C    0.000553   0.003872  -0.000194  -0.037912  -0.005658   0.249764
    10  H   -0.000009  -0.000276   0.000018   0.006634  -0.000089  -0.035929
    11  H   -0.000182   0.000722  -0.000039   0.001229   0.002855  -0.050050
    12  H   -0.000004  -0.000321   0.000005  -0.012646   0.000234  -0.034482
    13  C    0.003643  -0.052401  -0.010037   0.244818  -0.022843  -0.060204
    14  H   -0.000248   0.008134  -0.000026  -0.027518  -0.007354  -0.011749
    15  H    0.000991   0.002368   0.003942  -0.040755  -0.002260   0.006034
    16  H   -0.000442  -0.012886  -0.000271  -0.051076   0.006954   0.001185
    17  O    0.700253  -0.095848   0.000929  -0.005896  -0.000334   0.008794
    18  N   -0.036656   0.209805  -0.044749  -0.031544   0.005190  -0.006243
    19  H   -0.006652  -0.047973   0.003876   0.000655  -0.000410   0.003294
    20  N    0.420871  -0.111896  -0.000240   0.019397   0.007438  -0.005758
    21  H   -0.026967   0.005216  -0.001500  -0.000176   0.001627   0.000406
    22  C   -0.059850   0.008632  -0.000163  -0.001132   0.000073   0.000278
    23  H   -0.012938   0.004966  -0.000114  -0.000403  -0.000048  -0.000154
    24  H    0.000750  -0.001061  -0.000104   0.000191   0.000105  -0.000027
    25  H    0.003620   0.000470   0.000067  -0.000268  -0.000234   0.000165
    26  C    0.007213  -0.054958  -0.004815  -0.001530   0.000253  -0.001240
    27  C   -0.000740   0.013677   0.002780  -0.001766   0.000026  -0.000230
    28  H   -0.000303   0.000788  -0.000296   0.000048   0.000007   0.000027
    29  H    0.000063  -0.000762  -0.000238   0.000241  -0.000004  -0.000001
    30  H    0.000052  -0.000454  -0.000008  -0.000049   0.000001   0.000003
    31  O   -0.000050   0.007843   0.030123  -0.008689  -0.000151  -0.000185
              7          8          9         10         11         12
     1  C   -0.003700   0.008612   0.000553  -0.000009  -0.000182  -0.000004
     2  C    0.002636  -0.005827   0.003872  -0.000276   0.000722  -0.000321
     3  H    0.000367   0.000056  -0.000194   0.000018  -0.000039   0.000005
     4  C   -0.057270  -0.040493  -0.037912   0.006634   0.001229  -0.012646
     5  H    0.007165  -0.003636  -0.005658  -0.000089   0.002855   0.000234
     6  C    0.411156   0.413129   0.249764  -0.035929  -0.050050  -0.034482
     7  H    0.507431  -0.020869  -0.028243  -0.002278   0.005736  -0.005674
     8  H   -0.020869   0.500138  -0.028202  -0.005599  -0.003223   0.005642
     9  C   -0.028243  -0.028202   5.026434   0.414279   0.405208   0.408464
    10  H   -0.002278  -0.005599   0.414279   0.544476  -0.022121  -0.022326
    11  H    0.005736  -0.003223   0.405208  -0.022121   0.571514  -0.035807
    12  H   -0.005674   0.005642   0.408464  -0.022326  -0.035807   0.556611
    13  C   -0.006159   0.007846  -0.001004   0.000043  -0.003663   0.004669
    14  H   -0.000117  -0.000406   0.001533   0.000175   0.000659  -0.003479
    15  H   -0.000012  -0.000263  -0.000151   0.000020  -0.000140   0.000131
    16  H    0.003707   0.000323  -0.002759  -0.000111   0.000308   0.000248
    17  O   -0.000831   0.000139   0.000505   0.000009   0.000008  -0.000002
    18  N    0.015080  -0.000496   0.000229   0.000027  -0.000050  -0.000047
    19  H   -0.002735  -0.000056   0.000316   0.000000  -0.000003   0.000011
    20  N    0.000104  -0.002814  -0.000266   0.000009  -0.000041  -0.000012
    21  H    0.000025  -0.000135  -0.000004   0.000000   0.000010   0.000001
    22  C    0.000018  -0.000083  -0.000001   0.000000   0.000008   0.000000
    23  H    0.000014   0.000225  -0.000015  -0.000001  -0.000001   0.000000
    24  H    0.000000   0.000006  -0.000001   0.000000   0.000000   0.000000
    25  H   -0.000005   0.000085   0.000014  -0.000002   0.000009   0.000000
    26  C    0.000712  -0.000161  -0.000063   0.000000   0.000000  -0.000008
    27  C    0.000109   0.000014  -0.000006   0.000000   0.000000   0.000000
    28  H    0.000239  -0.000004  -0.000002   0.000000   0.000000   0.000000
    29  H   -0.000088  -0.000001   0.000000   0.000000   0.000000   0.000000
    30  H    0.000025   0.000000   0.000000   0.000000   0.000000   0.000000
    31  O   -0.000167   0.000004  -0.000002   0.000000   0.000000   0.000001
             13         14         15         16         17         18
     1  C    0.003643  -0.000248   0.000991  -0.000442   0.700253  -0.036656
     2  C   -0.052401   0.008134   0.002368  -0.012886  -0.095848   0.209805
     3  H   -0.010037  -0.000026   0.003942  -0.000271   0.000929  -0.044749
     4  C    0.244818  -0.027518  -0.040755  -0.051076  -0.005896  -0.031544
     5  H   -0.022843  -0.007354  -0.002260   0.006954  -0.000334   0.005190
     6  C   -0.060204  -0.011749   0.006034   0.001185   0.008794  -0.006243
     7  H   -0.006159  -0.000117  -0.000012   0.003707  -0.000831   0.015080
     8  H    0.007846  -0.000406  -0.000263   0.000323   0.000139  -0.000496
     9  C   -0.001004   0.001533  -0.000151  -0.002759   0.000505   0.000229
    10  H    0.000043   0.000175   0.000020  -0.000111   0.000009   0.000027
    11  H   -0.003663   0.000659  -0.000140   0.000308   0.000008  -0.000050
    12  H    0.004669  -0.003479   0.000131   0.000248  -0.000002  -0.000047
    13  C    5.191606   0.405865   0.401761   0.407116  -0.000464  -0.003705
    14  H    0.405865   0.511943  -0.010834  -0.028872   0.000005  -0.000362
    15  H    0.401761  -0.010834   0.488056  -0.021618  -0.000014  -0.002793
    16  H    0.407116  -0.028872  -0.021618   0.530068  -0.000003   0.008954
    17  O   -0.000464   0.000005  -0.000014  -0.000003   7.856671  -0.020314
    18  N   -0.003705  -0.000362  -0.002793   0.008954  -0.020314   6.619503
    19  H   -0.000042   0.000045  -0.000070  -0.000135   0.042122   0.365417
    20  N    0.000872  -0.000010   0.000064  -0.000017  -0.107400   0.003625
    21  H   -0.000139   0.000006  -0.000007  -0.000001   0.004577   0.000368
    22  C    0.000025  -0.000003   0.000002   0.000002  -0.016347  -0.000319
    23  H    0.000013  -0.000001   0.000000   0.000000   0.028137  -0.000070
    24  H    0.000005   0.000000   0.000001   0.000000  -0.000066   0.000024
    25  H   -0.000016   0.000001  -0.000001   0.000000   0.000145   0.000004
    26  C   -0.004893   0.000388  -0.001969  -0.001901  -0.000882   0.336655
    27  C    0.000045  -0.000003   0.000373  -0.000073  -0.000304  -0.066671
    28  H   -0.000064  -0.000004  -0.000053   0.000172  -0.000228   0.015424
    29  H    0.000050   0.000003  -0.000029  -0.000026  -0.000002   0.000996
    30  H   -0.000008  -0.000001  -0.000002   0.000033   0.000014  -0.000931
    31  O   -0.003554   0.000302   0.009167  -0.003004  -0.000030  -0.143107
             19         20         21         22         23         24
     1  C   -0.006652   0.420871  -0.026967  -0.059850  -0.012938   0.000750
     2  C   -0.047973  -0.111896   0.005216   0.008632   0.004966  -0.001061
     3  H    0.003876  -0.000240  -0.001500  -0.000163  -0.000114  -0.000104
     4  C    0.000655   0.019397  -0.000176  -0.001132  -0.000403   0.000191
     5  H   -0.000410   0.007438   0.001627   0.000073  -0.000048   0.000105
     6  C    0.003294  -0.005758   0.000406   0.000278  -0.000154  -0.000027
     7  H   -0.002735   0.000104   0.000025   0.000018   0.000014   0.000000
     8  H   -0.000056  -0.002814  -0.000135  -0.000083   0.000225   0.000006
     9  C    0.000316  -0.000266  -0.000004  -0.000001  -0.000015  -0.000001
    10  H    0.000000   0.000009   0.000000   0.000000  -0.000001   0.000000
    11  H   -0.000003  -0.000041   0.000010   0.000008  -0.000001   0.000000
    12  H    0.000011  -0.000012   0.000001   0.000000   0.000000   0.000000
    13  C   -0.000042   0.000872  -0.000139   0.000025   0.000013   0.000005
    14  H    0.000045  -0.000010   0.000006  -0.000003  -0.000001   0.000000
    15  H   -0.000070   0.000064  -0.000007   0.000002   0.000000   0.000001
    16  H   -0.000135  -0.000017  -0.000001   0.000002   0.000000   0.000000
    17  O    0.042122  -0.107400   0.004577  -0.016347   0.028137  -0.000066
    18  N    0.365417   0.003625   0.000368  -0.000319  -0.000070   0.000024
    19  H    0.484537   0.002971  -0.000273  -0.000027  -0.000273   0.000008
    20  N    0.002971   6.392558   0.383120   0.275380  -0.039319  -0.033951
    21  H   -0.000273   0.383120   0.528553  -0.031106   0.005807  -0.004904
    22  C   -0.000027   0.275380  -0.031106   4.799237   0.396341   0.404112
    23  H   -0.000273  -0.039319   0.005807   0.396341   0.538191  -0.027440
    24  H    0.000008  -0.033951  -0.004904   0.404112  -0.027440   0.607707
    25  H    0.000004  -0.037980  -0.003030   0.399025  -0.024439  -0.044375
    26  C   -0.011758  -0.000605   0.000043   0.000022   0.000012  -0.000002
    27  C   -0.002064  -0.000008   0.000001  -0.000001   0.000001   0.000000
    28  H   -0.003175  -0.000007   0.000002   0.000000   0.000000   0.000000
    29  H    0.000576   0.000000   0.000000   0.000000   0.000000   0.000000
    30  H   -0.000702  -0.000002   0.000000   0.000000   0.000000   0.000000
    31  O    0.003239   0.000008  -0.000059   0.000001   0.000001   0.000000
             25         26         27         28         29         30
     1  C    0.003620   0.007213  -0.000740  -0.000303   0.000063   0.000052
     2  C    0.000470  -0.054958   0.013677   0.000788  -0.000762  -0.000454
     3  H    0.000067  -0.004815   0.002780  -0.000296  -0.000238  -0.000008
     4  C   -0.000268  -0.001530  -0.001766   0.000048   0.000241  -0.000049
     5  H   -0.000234   0.000253   0.000026   0.000007  -0.000004   0.000001
     6  C    0.000165  -0.001240  -0.000230   0.000027  -0.000001   0.000003
     7  H   -0.000005   0.000712   0.000109   0.000239  -0.000088   0.000025
     8  H    0.000085  -0.000161   0.000014  -0.000004  -0.000001   0.000000
     9  C    0.000014  -0.000063  -0.000006  -0.000002   0.000000   0.000000
    10  H   -0.000002   0.000000   0.000000   0.000000   0.000000   0.000000
    11  H    0.000009   0.000000   0.000000   0.000000   0.000000   0.000000
    12  H    0.000000  -0.000008   0.000000   0.000000   0.000000   0.000000
    13  C   -0.000016  -0.004893   0.000045  -0.000064   0.000050  -0.000008
    14  H    0.000001   0.000388  -0.000003  -0.000004   0.000003  -0.000001
    15  H   -0.000001  -0.001969   0.000373  -0.000053  -0.000029  -0.000002
    16  H    0.000000  -0.001901  -0.000073   0.000172  -0.000026   0.000033
    17  O    0.000145  -0.000882  -0.000304  -0.000228  -0.000002   0.000014
    18  N    0.000004   0.336655  -0.066671   0.015424   0.000996  -0.000931
    19  H    0.000004  -0.011758  -0.002064  -0.003175   0.000576  -0.000702
    20  N   -0.037980  -0.000605  -0.000008  -0.000007   0.000000  -0.000002
    21  H   -0.003030   0.000043   0.000001   0.000002   0.000000   0.000000
    22  C    0.399025   0.000022  -0.000001   0.000000   0.000000   0.000000
    23  H   -0.024439   0.000012   0.000001   0.000000   0.000000   0.000000
    24  H   -0.044375  -0.000002   0.000000   0.000000   0.000000   0.000000
    25  H    0.612904   0.000000   0.000000   0.000000   0.000000   0.000000
    26  C    0.000000   4.551529   0.283941  -0.055352  -0.027830  -0.027004
    27  C    0.000000   0.283941   4.977982   0.397929   0.390097   0.388283
    28  H    0.000000  -0.055352   0.397929   0.589386  -0.027466  -0.023775
    29  H    0.000000  -0.027830   0.390097  -0.027466   0.573229  -0.026133
    30  H    0.000000  -0.027004   0.388283  -0.023775  -0.026133   0.572738
    31  O    0.000000   0.721004  -0.065527   0.004255   0.002268   0.000932
             31
     1  C   -0.000050
     2  C    0.007843
     3  H    0.030123
     4  C   -0.008689
     5  H   -0.000151
     6  C   -0.000185
     7  H   -0.000167
     8  H    0.000004
     9  C   -0.000002
    10  H    0.000000
    11  H    0.000000
    12  H    0.000001
    13  C   -0.003554
    14  H    0.000302
    15  H    0.009167
    16  H   -0.003004
    17  O   -0.000030
    18  N   -0.143107
    19  H    0.003239
    20  N    0.000008
    21  H   -0.000059
    22  C    0.000001
    23  H    0.000001
    24  H    0.000000
    25  H    0.000000
    26  C    0.721004
    27  C   -0.065527
    28  H    0.004255
    29  H    0.002268
    30  H    0.000932
    31  O    7.833698
 Mulliken atomic charges:
              1
     1  C    0.268542
     2  C   -0.137778
     3  H    0.230669
     4  C   -0.163120
     5  H    0.197118
     6  C   -0.319125
     7  H    0.173627
     8  H    0.176047
     9  C   -0.406689
    10  H    0.123051
    11  H    0.127052
    12  H    0.138790
    13  C   -0.499181
    14  H    0.161930
    15  H    0.168059
    16  H    0.164128
    17  O   -0.393343
    18  N   -0.223246
    19  H    0.169274
    20  N   -0.166092
    21  H    0.138538
    22  C   -0.174124
    23  H    0.131506
    24  H    0.099023
    25  H    0.093834
    26  C    0.293196
    27  C   -0.317864
    28  H    0.102452
    29  H    0.115056
    30  H    0.116987
    31  O   -0.388321
 Sum of Mulliken atomic charges =   0.00000
 Mulliken charges with hydrogens summed into heavy atoms:
              1
     1  C    0.268542
     2  C    0.092892
     4  C    0.033998
     6  C    0.030548
     9  C   -0.017795
    13  C   -0.005064
    17  O   -0.393343
    18  N   -0.053972
    20  N   -0.027554
    22  C    0.150240
    26  C    0.293196
    27  C    0.016631
    31  O   -0.388321
 Sum of Mulliken charges with hydrogens summed into heavy atoms =   0.00000
 Electronic spatial extent (au):  <R**2>=           2933.0469
 Charge=              0.0000 electrons
 Dipole moment (field-independent basis, Debye):
    X=              2.6964    Y=             -0.2815    Z=              0.1631  Tot=              2.7160
 Quadrupole moment (field-independent basis, Debye-Ang):
   XX=            -76.8174   YY=            -80.0100   ZZ=            -82.7814
   XY=              1.6482   XZ=             13.4786   YZ=              2.3121
 Traceless Quadrupole moment (field-independent basis, Debye-Ang):
   XX=              3.0522   YY=             -0.1404   ZZ=             -2.9118
   XY=              1.6482   XZ=             13.4786   YZ=              2.3121
 Octapole moment (field-independent basis, Debye-Ang**2):
  XXX=             25.3623  YYY=             16.9790  ZZZ=              2.6609  XYY=              0.5640
  XXY=             19.0278  XXZ=            -16.9714  XZZ=              9.4474  YZZ=              0.1507
  YYZ=              5.2505  XYZ=             12.9285
 Hexadecapole moment (field-independent basis, Debye-Ang**3):
 XXXX=          -1910.4203 YYYY=          -1427.8012 ZZZZ=           -447.5444 XXXY=             48.7215
 XXXZ=             80.9113 YYYX=             18.2753 YYYZ=              8.7917 ZZZX=             23.3197
 ZZZY=              6.7393 XXYY=           -536.1746 XXZZ=           -428.9410 YYZZ=           -319.8582
 XXYZ=             -7.1059 YYXZ=             10.7166 ZZXY=              4.7139
 N-N= 8.733089790419D+02 E-N=-3.176253881344D+03  KE= 6.091734020535D+02
 Calculating spin-rotation constants.
 Leave Link  601 at Sat Mar 23 04:59:36 2013, MaxMem= 2147483648 cpu:     145.0
 (Enter c:\g09w\l9999.exe)

 Test job not archived.
 1|1|UNPC-IMOEN|SP|RM06|Gen|C9H18N2O2|ZENAWI|23-Mar-2013|0||#P Geom=All
 Check Guess=TCheck SCRF=Check GenChk RM06/ChkBas NMR=ReadFC IOp(3/6=22
 )||J-coupling calculation 1||0,1|C,0,1.9266795644,-0.5816291438,1.8257
 29232|C,0,1.0454612944,0.0974503062,0.7859726121|H,0,0.5236912655,-0.6
 59922808,0.1904172779|C,0,1.8852457577,0.9601231651,-0.1750358323|H,0,
 2.586003767,0.2780887723,-0.6775102137|C,0,2.7088147795,1.998252417,0.
 5763460707|H,0,2.0256312519,2.6501173044,1.1323133199|H,0,3.3261338926
 ,1.4973745052,1.3285319157|C,0,3.5991400018,2.833000486,-0.322485692|H
 ,0,4.2598172877,3.4738940784,0.2613334637|H,0,4.2274982845,2.196660035
 1,-0.9516167069|H,0,3.0202723772,3.4788192838,-0.9838247828|C,0,0.9937
 7982,1.5844883186,-1.2333936217|H,0,1.5849658245,2.0371128022,-2.02955
 89913|H,0,0.3254058102,0.8469755158,-1.6780984599|H,0,0.3688316465,2.3
 665811362,-0.795052402|O,0,1.9468575022,-0.2190476387,2.9849128606|N,0
 ,0.039168577,0.8520137687,1.4907821925|H,0,0.2923328968,1.1011432168,2
 .437053877|N,0,2.7001186273,-1.5807925725,1.3418013572|H,0,2.579136149
 ,-1.8495170197,0.3805744659|C,0,3.6260498247,-2.3207829102,2.163474553
 9|H,0,3.6109974277,-1.8789654479,3.156738361|H,0,3.3385108066,-3.37004
 57594,2.2440673862|H,0,4.6403165179,-2.2643220739,1.7669323863|C,0,-1.
 278463061,0.7812209415,1.150497159|C,0,-2.2235606951,1.432715145,2.121
 9697817|H,0,-1.7221995463,1.9938789161,2.9089949958|H,0,-2.88860319,2.
 09572131,1.5717370642|H,0,-2.8425104494,0.6591994115,2.5761167314|O,0,
 -1.6711386425,0.2416573281,0.1381662278||Version=EM64W-G09RevC.01|Stat
 e=1-A|HF=-613.5926512|RMSD=6.362e-009|Dipole=1.0189963,-0.319404,-0.03
 74831|Quadrupole=-1.4914479,5.6073596,-4.1159118,-6.2049974,-6.6651832
 ,1.2528422|PG=C01 [X(C9H18N2O2)]||@


 I DON'T EXACTLY UNDERSTAND WHAT YOU ARE SAYING,
 BUT YOU ARE ABSOLUTELY RIGHT.
     M.S.GORDON, IN A NDSU FACULTY MEETING
 Job cpu time:  1 days  5 hours 35 minutes 43.0 seconds.
 File lengths (MBytes):  RWF=   2231 Int=      0 D2E=      0 Chk=     54 Scr=      1
 Normal termination of Gaussian 09 at Sat Mar 23 04:59:37 2013.
