 Entering Gaussian System, Link 0=g09
 Input=leucine.gjf
 Output=leucine.log
 Initial command:
 /home/ztw1e12/g09/l1.exe /home/ztw1e12/Gau-21440.inp -scrdir=/home/ztw1e12/
 Default is to use a total of   8 processors:
                                8 via shared-memory
                                1 via Linda
 Entering Link 1 = /home/ztw1e12/g09/l1.exe PID=     21441.
  
 Copyright (c) 1988,1990,1992,1993,1995,1998,2003,2009, Gaussian, Inc.
                  All Rights Reserved.
  
 This is part of the Gaussian(R) 09 program.  It is based on
 the Gaussian(R) 03 system (copyright 2003, Gaussian, Inc.),
 the Gaussian(R) 98 system (copyright 1998, Gaussian, Inc.),
 the Gaussian(R) 94 system (copyright 1995, Gaussian, Inc.),
 the Gaussian 92(TM) system (copyright 1992, Gaussian, Inc.),
 the Gaussian 90(TM) system (copyright 1990, Gaussian, Inc.),
 the Gaussian 88(TM) system (copyright 1988, Gaussian, Inc.),
 the Gaussian 86(TM) system (copyright 1986, Carnegie Mellon
 University), and the Gaussian 82(TM) system (copyright 1983,
 Carnegie Mellon University). Gaussian is a federally registered
 trademark of Gaussian, Inc.
  
 This software contains proprietary and confidential information,
 including trade secrets, belonging to Gaussian, Inc.
  
 This software is provided under written license and may be
 used, copied, transmitted, or stored only in accord with that
 written license.
  
 The following legend is applicable only to US Government
 contracts under FAR:
  
                    RESTRICTED RIGHTS LEGEND
  
 Use, reproduction and disclosure by the US Government is
 subject to restrictions as set forth in subparagraphs (a)
 and (c) of the Commercial Computer Software - Restricted
 Rights clause in FAR 52.227-19.
  
 Gaussian, Inc.
 340 Quinnipiac St., Bldg. 40, Wallingford CT 06492
  
  
 ---------------------------------------------------------------
 Warning -- This program may not be used in any manner that
 competes with the business of Gaussian, Inc. or will provide
 assistance to any competitor of Gaussian, Inc.  The licensee
 of this program is prohibited from giving any competitor of
 Gaussian, Inc. access to this program.  By using this program,
 the user acknowledges that Gaussian, Inc. is engaged in the
 business of creating and licensing software in the field of
 computational chemistry and represents and warrants to the
 licensee that it is not a competitor of Gaussian, Inc. and that
 it will not use this program in any manner prohibited above.
 ---------------------------------------------------------------
  

 Cite this work as:
 Gaussian 09, Revision A.02,
 M. J. Frisch, G. W. Trucks, H. B. Schlegel, G. E. Scuseria, 
 M. A. Robb, J. R. Cheeseman, G. Scalmani, V. Barone, B. Mennucci, 
 G. A. Petersson, H. Nakatsuji, M. Caricato, X. Li, H. P. Hratchian, 
 A. F. Izmaylov, J. Bloino, G. Zheng, J. L. Sonnenberg, M. Hada, 
 M. Ehara, K. Toyota, R. Fukuda, J. Hasegawa, M. Ishida, T. Nakajima, 
 Y. Honda, O. Kitao, H. Nakai, T. Vreven, J. A. Montgomery, Jr., 
 J. E. Peralta, F. Ogliaro, M. Bearpark, J. J. Heyd, E. Brothers, 
 K. N. Kudin, V. N. Staroverov, R. Kobayashi, J. Normand, 
 K. Raghavachari, A. Rendell, J. C. Burant, S. S. Iyengar, J. Tomasi, 
 M. Cossi, N. Rega, J. M. Millam, M. Klene, J. E. Knox, J. B. Cross, 
 V. Bakken, C. Adamo, J. Jaramillo, R. Gomperts, R. E. Stratmann, 
 O. Yazyev, A. J. Austin, R. Cammi, C. Pomelli, J. W. Ochterski, 
 R. L. Martin, K. Morokuma, V. G. Zakrzewski, G. A. Voth, 
 P. Salvador, J. J. Dannenberg, S. Dapprich, A. D. Daniels, 
 O. Farkas, J. B. Foresman, J. V. Ortiz, J. Cioslowski, 
 and D. J. Fox, Gaussian, Inc., Wallingford CT, 2009.
 
 ******************************************
 Gaussian 09:  EM64L-G09RevA.02 11-Jun-2009
                23-Feb-2013 
 ******************************************
 %Chk=leucine.chk
 %Mem=16GB
 %NProcShared=12
 Will use up to   12 processors via shared memory.
 Default route:  MaxDisk=100GB
 ------------------------------------------------------------
 #p opt=tight m06/cc-pvtz scf=tight integral=(grid=ultrafine)
 ------------------------------------------------------------
 1/7=10,14=-1,18=20,19=15,26=3,38=1/1,3;
 2/9=110,12=2,17=6,18=5,40=1/2;
 3/5=16,6=1,11=2,16=1,25=1,30=1,71=1,74=-54,75=-5/1,2,3;
 4//1;
 5/5=2,32=2,38=5/2;
 6/7=2,8=2,9=2,10=2,28=1/1;
 7//1,2,3,16;
 1/7=10,14=-1,18=20,19=15/3(2);
 2/9=110/2;
 99//99;
 2/9=110/2;
 3/5=16,6=1,11=2,16=1,25=1,30=1,71=1,74=-54,75=-5/1,2,3;
 4/5=5,16=3/1;
 5/5=2,32=2,38=5/2;
 7//1,2,3,16;
 1/7=10,14=-1,18=20,19=15/3(-5);
 2/9=110/2;
 6/7=2,8=2,9=2,10=2,19=2,28=1/1;
 99/9=1/99;
 Leave Link    1 at Sat Feb 23 03:05:50 2013, MaxMem= 2147483648 cpu:       1.3
 (Enter /home/ztw1e12/g09/l101.exe)
 ---------------------
 Geometry optimisation
 ---------------------
 Symbolic Z-matrix:
 Charge =  0 Multiplicity = 1
 C                     1.95659  -0.49758   1.48039 
 C                     1.09712   0.31592   0.49493 
 H                     0.52649  -0.3519   -0.11605 
 C                     3.75008   2.99151  -0.41235 
 H                     4.32071   3.65933   0.19863 
 H                     4.41295   2.35406  -0.95932 
 H                     3.15292   3.55673  -1.09706 
 O                     2.25022  -0.01584   2.60524 
 N                     0.18645   1.19167   1.24636 
 H                    -0.37165   1.71991   0.60645 
 N                     2.434    -1.83683   1.10707 
 H                     3.32299  -1.75997   0.65564 
 C                     2.56773  -2.66373   2.31506 
 H                     1.61651  -2.74598   2.79809 
 H                     2.91523  -3.63857   2.04332 
 H                     3.26878  -2.20855   2.98306 
 C                    -0.68776   0.37342   2.09908 
 C                    -2.10744   0.86278   2.4406 
 H                    -2.48055   1.46329   1.63744 
 H                    -2.75044   0.01966   2.58409 
 H                    -2.07772   1.44541   3.33758 
 O                    -0.27606  -0.72693   2.54998 
 C                     2.83424   2.1343    0.48097 
 H                     3.4314    1.56908   1.16567 
 C                     1.8802    3.05174   1.26818 
 H                     1.28304   3.61696   0.58348 
 H                     1.24387   2.45615   1.88887 
 H                     2.45083   3.71957   1.87916 
 C                     2.01296   1.17313  -0.39839 
 H                     1.4158    1.73835  -1.08309 
 H                     2.67583   0.53569  -0.94535 
 
 NAtoms=     31 NQM=     31 NQMF=      0 NMic=      0 NMicF=      0 NTot=     31.
                    Isotopes and Nuclear Properties:
 (Nuclear quadrupole moments (NQMom) in fm**2, nuclear magnetic moments (NMagM)
  in nuclear magnetons)

  Atom         1           2           3           4           5           6           7           8           9          10
 IAtWgt=          12          12           1          12           1           1           1          16          14           1
 AtmWgt=  12.0000000  12.0000000   1.0078250  12.0000000   1.0078250   1.0078250   1.0078250  15.9949146  14.0030740   1.0078250
 NucSpn=           0           0           1           0           1           1           1           0           2           1
 AtZEff=   0.0000000   0.0000000   0.0000000   0.0000000   0.0000000   0.0000000   0.0000000   0.0000000   0.0000000   0.0000000
 NQMom=    0.0000000   0.0000000   0.0000000   0.0000000   0.0000000   0.0000000   0.0000000   0.0000000   2.0440000   0.0000000
 NMagM=    0.0000000   0.0000000   2.7928460   0.0000000   2.7928460   2.7928460   2.7928460   0.0000000   0.4037610   2.7928460

  Atom        11          12          13          14          15          16          17          18          19          20
 IAtWgt=          14           1          12           1           1           1          12          12           1           1
 AtmWgt=  14.0030740   1.0078250  12.0000000   1.0078250   1.0078250   1.0078250  12.0000000  12.0000000   1.0078250   1.0078250
 NucSpn=           2           1           0           1           1           1           0           0           1           1
 AtZEff=   0.0000000   0.0000000   0.0000000   0.0000000   0.0000000   0.0000000   0.0000000   0.0000000   0.0000000   0.0000000
 NQMom=    2.0440000   0.0000000   0.0000000   0.0000000   0.0000000   0.0000000   0.0000000   0.0000000   0.0000000   0.0000000
 NMagM=    0.4037610   2.7928460   0.0000000   2.7928460   2.7928460   2.7928460   0.0000000   0.0000000   2.7928460   2.7928460

  Atom        21          22          23          24          25          26          27          28          29          30
 IAtWgt=           1          16          12           1          12           1           1           1          12           1
 AtmWgt=   1.0078250  15.9949146  12.0000000   1.0078250  12.0000000   1.0078250   1.0078250   1.0078250  12.0000000   1.0078250
 NucSpn=           1           0           0           1           0           1           1           1           0           1
 AtZEff=   0.0000000   0.0000000   0.0000000   0.0000000   0.0000000   0.0000000   0.0000000   0.0000000   0.0000000   0.0000000
 NQMom=    0.0000000   0.0000000   0.0000000   0.0000000   0.0000000   0.0000000   0.0000000   0.0000000   0.0000000   0.0000000
 NMagM=    2.7928460   0.0000000   0.0000000   2.7928460   0.0000000   2.7928460   2.7928460   2.7928460   0.0000000   2.7928460

  Atom        31
 IAtWgt=           1
 AtmWgt=   1.0078250
 NucSpn=           1
 AtZEff=   0.0000000
 NQMom=    0.0000000
 NMagM=    2.7928460
 Leave Link  101 at Sat Feb 23 03:05:51 2013, MaxMem= 2147483648 cpu:       1.2
 (Enter /home/ztw1e12/g09/l103.exe)

 GradGradGradGradGradGradGradGradGradGradGradGradGradGradGradGradGradGrad
 Berny optimization.
 Initialization pass.
                           ----------------------------
                           !    Initial Parameters    !
                           ! (Angstroms and Degrees)  !
 --------------------------                            --------------------------
 ! Name  Definition              Value          Derivative Info.                !
 --------------------------------------------------------------------------------
 ! R1    R(1,2)                  1.54           estimate D2E/DX2                !
 ! R2    R(1,8)                  1.2584         estimate D2E/DX2                !
 ! R3    R(1,11)                 1.47           estimate D2E/DX2                !
 ! R4    R(2,3)                  1.07           estimate D2E/DX2                !
 ! R5    R(2,9)                  1.47           estimate D2E/DX2                !
 ! R6    R(2,29)                 1.54           estimate D2E/DX2                !
 ! R7    R(4,5)                  1.07           estimate D2E/DX2                !
 ! R8    R(4,6)                  1.07           estimate D2E/DX2                !
 ! R9    R(4,7)                  1.07           estimate D2E/DX2                !
 ! R10   R(4,23)                 1.54           estimate D2E/DX2                !
 ! R11   R(9,10)                 1.0            estimate D2E/DX2                !
 ! R12   R(9,17)                 1.47           estimate D2E/DX2                !
 ! R13   R(11,12)                1.0            estimate D2E/DX2                !
 ! R14   R(11,13)                1.47           estimate D2E/DX2                !
 ! R15   R(13,14)                1.07           estimate D2E/DX2                !
 ! R16   R(13,15)                1.07           estimate D2E/DX2                !
 ! R17   R(13,16)                1.07           estimate D2E/DX2                !
 ! R18   R(17,18)                1.54           estimate D2E/DX2                !
 ! R19   R(17,22)                1.2584         estimate D2E/DX2                !
 ! R20   R(18,19)                1.07           estimate D2E/DX2                !
 ! R21   R(18,20)                1.07           estimate D2E/DX2                !
 ! R22   R(18,21)                1.07           estimate D2E/DX2                !
 ! R23   R(23,24)                1.07           estimate D2E/DX2                !
 ! R24   R(23,25)                1.54           estimate D2E/DX2                !
 ! R25   R(23,29)                1.54           estimate D2E/DX2                !
 ! R26   R(25,26)                1.07           estimate D2E/DX2                !
 ! R27   R(25,27)                1.07           estimate D2E/DX2                !
 ! R28   R(25,28)                1.07           estimate D2E/DX2                !
 ! R29   R(29,30)                1.07           estimate D2E/DX2                !
 ! R30   R(29,31)                1.07           estimate D2E/DX2                !
 ! A1    A(2,1,8)              120.0            estimate D2E/DX2                !
 ! A2    A(2,1,11)             120.0            estimate D2E/DX2                !
 ! A3    A(8,1,11)             120.0            estimate D2E/DX2                !
 ! A4    A(1,2,3)              109.4712         estimate D2E/DX2                !
 ! A5    A(1,2,9)              109.4712         estimate D2E/DX2                !
 ! A6    A(1,2,29)             109.4712         estimate D2E/DX2                !
 ! A7    A(3,2,9)              109.4712         estimate D2E/DX2                !
 ! A8    A(3,2,29)             109.4712         estimate D2E/DX2                !
 ! A9    A(9,2,29)             109.4712         estimate D2E/DX2                !
 ! A10   A(5,4,6)              109.4712         estimate D2E/DX2                !
 ! A11   A(5,4,7)              109.4712         estimate D2E/DX2                !
 ! A12   A(5,4,23)             109.4712         estimate D2E/DX2                !
 ! A13   A(6,4,7)              109.4712         estimate D2E/DX2                !
 ! A14   A(6,4,23)             109.4712         estimate D2E/DX2                !
 ! A15   A(7,4,23)             109.4712         estimate D2E/DX2                !
 ! A16   A(2,9,10)             109.4712         estimate D2E/DX2                !
 ! A17   A(2,9,17)             109.4712         estimate D2E/DX2                !
 ! A18   A(10,9,17)            109.4712         estimate D2E/DX2                !
 ! A19   A(1,11,12)            109.4712         estimate D2E/DX2                !
 ! A20   A(1,11,13)            109.4712         estimate D2E/DX2                !
 ! A21   A(12,11,13)           109.4712         estimate D2E/DX2                !
 ! A22   A(11,13,14)           109.4712         estimate D2E/DX2                !
 ! A23   A(11,13,15)           109.4712         estimate D2E/DX2                !
 ! A24   A(11,13,16)           109.4712         estimate D2E/DX2                !
 ! A25   A(14,13,15)           109.4712         estimate D2E/DX2                !
 ! A26   A(14,13,16)           109.4712         estimate D2E/DX2                !
 ! A27   A(15,13,16)           109.4712         estimate D2E/DX2                !
 ! A28   A(9,17,18)            120.0            estimate D2E/DX2                !
 ! A29   A(9,17,22)            120.0            estimate D2E/DX2                !
 ! A30   A(18,17,22)           120.0            estimate D2E/DX2                !
 ! A31   A(17,18,19)           109.4712         estimate D2E/DX2                !
 ! A32   A(17,18,20)           109.4712         estimate D2E/DX2                !
 ! A33   A(17,18,21)           109.4712         estimate D2E/DX2                !
 ! A34   A(19,18,20)           109.4712         estimate D2E/DX2                !
 ! A35   A(19,18,21)           109.4712         estimate D2E/DX2                !
 ! A36   A(20,18,21)           109.4712         estimate D2E/DX2                !
 ! A37   A(4,23,24)            109.4712         estimate D2E/DX2                !
 ! A38   A(4,23,25)            109.4712         estimate D2E/DX2                !
 ! A39   A(4,23,29)            109.4712         estimate D2E/DX2                !
 ! A40   A(24,23,25)           109.4712         estimate D2E/DX2                !
 ! A41   A(24,23,29)           109.4712         estimate D2E/DX2                !
 ! A42   A(25,23,29)           109.4712         estimate D2E/DX2                !
 ! A43   A(23,25,26)           109.4712         estimate D2E/DX2                !
 ! A44   A(23,25,27)           109.4712         estimate D2E/DX2                !
 ! A45   A(23,25,28)           109.4712         estimate D2E/DX2                !
 ! A46   A(26,25,27)           109.4712         estimate D2E/DX2                !
 ! A47   A(26,25,28)           109.4712         estimate D2E/DX2                !
 ! A48   A(27,25,28)           109.4712         estimate D2E/DX2                !
 ! A49   A(2,29,23)            109.4712         estimate D2E/DX2                !
 ! A50   A(2,29,30)            109.4712         estimate D2E/DX2                !
 ! A51   A(2,29,31)            109.4712         estimate D2E/DX2                !
 ! A52   A(23,29,30)           109.4712         estimate D2E/DX2                !
 ! A53   A(23,29,31)           109.4712         estimate D2E/DX2                !
 ! A54   A(30,29,31)           109.4712         estimate D2E/DX2                !
 ! D1    D(8,1,2,3)           -150.0            estimate D2E/DX2                !
 ! D2    D(8,1,2,9)            -30.0            estimate D2E/DX2                !
 ! D3    D(8,1,2,29)            90.0            estimate D2E/DX2                !
 ! D4    D(11,1,2,3)            30.0            estimate D2E/DX2                !
 ! D5    D(11,1,2,9)           150.0            estimate D2E/DX2                !
 ! D6    D(11,1,2,29)          -90.0            estimate D2E/DX2                !
 ! D7    D(2,1,11,12)           90.0            estimate D2E/DX2                !
 ! D8    D(2,1,11,13)         -150.0            estimate D2E/DX2                !
 ! D9    D(8,1,11,12)          -90.0            estimate D2E/DX2                !
 ! D10   D(8,1,11,13)           30.0            estimate D2E/DX2                !
 ! D11   D(1,2,9,10)           180.0            estimate D2E/DX2                !
 ! D12   D(1,2,9,17)           -60.0            estimate D2E/DX2                !
 ! D13   D(3,2,9,10)           -60.0            estimate D2E/DX2                !
 ! D14   D(3,2,9,17)            60.0            estimate D2E/DX2                !
 ! D15   D(29,2,9,10)           60.0            estimate D2E/DX2                !
 ! D16   D(29,2,9,17)          180.0            estimate D2E/DX2                !
 ! D17   D(1,2,29,23)          -60.0            estimate D2E/DX2                !
 ! D18   D(1,2,29,30)          180.0            estimate D2E/DX2                !
 ! D19   D(1,2,29,31)           60.0            estimate D2E/DX2                !
 ! D20   D(3,2,29,23)          180.0            estimate D2E/DX2                !
 ! D21   D(3,2,29,30)           60.0            estimate D2E/DX2                !
 ! D22   D(3,2,29,31)          -60.0            estimate D2E/DX2                !
 ! D23   D(9,2,29,23)           60.0            estimate D2E/DX2                !
 ! D24   D(9,2,29,30)          -60.0            estimate D2E/DX2                !
 ! D25   D(9,2,29,31)          180.0            estimate D2E/DX2                !
 ! D26   D(5,4,23,24)          -60.0            estimate D2E/DX2                !
 ! D27   D(5,4,23,25)           60.0            estimate D2E/DX2                !
 ! D28   D(5,4,23,29)          180.0            estimate D2E/DX2                !
 ! D29   D(6,4,23,24)           60.0            estimate D2E/DX2                !
 ! D30   D(6,4,23,25)         -180.0            estimate D2E/DX2                !
 ! D31   D(6,4,23,29)          -60.0            estimate D2E/DX2                !
 ! D32   D(7,4,23,24)          180.0            estimate D2E/DX2                !
 ! D33   D(7,4,23,25)          -60.0            estimate D2E/DX2                !
 ! D34   D(7,4,23,29)           60.0            estimate D2E/DX2                !
 ! D35   D(2,9,17,18)         -150.0            estimate D2E/DX2                !
 ! D36   D(2,9,17,22)           30.0            estimate D2E/DX2                !
 ! D37   D(10,9,17,18)         -30.0            estimate D2E/DX2                !
 ! D38   D(10,9,17,22)         150.0            estimate D2E/DX2                !
 ! D39   D(1,11,13,14)          60.0            estimate D2E/DX2                !
 ! D40   D(1,11,13,15)         180.0            estimate D2E/DX2                !
 ! D41   D(1,11,13,16)         -60.0            estimate D2E/DX2                !
 ! D42   D(12,11,13,14)        180.0            estimate D2E/DX2                !
 ! D43   D(12,11,13,15)        -60.0            estimate D2E/DX2                !
 ! D44   D(12,11,13,16)         60.0            estimate D2E/DX2                !
 ! D45   D(9,17,18,19)          30.0            estimate D2E/DX2                !
 ! D46   D(9,17,18,20)         150.0            estimate D2E/DX2                !
 ! D47   D(9,17,18,21)         -90.0            estimate D2E/DX2                !
 ! D48   D(22,17,18,19)       -150.0            estimate D2E/DX2                !
 ! D49   D(22,17,18,20)        -30.0            estimate D2E/DX2                !
 ! D50   D(22,17,18,21)         90.0            estimate D2E/DX2                !
 ! D51   D(4,23,25,26)          60.0            estimate D2E/DX2                !
 ! D52   D(4,23,25,27)         180.0            estimate D2E/DX2                !
 ! D53   D(4,23,25,28)         -60.0            estimate D2E/DX2                !
 ! D54   D(24,23,25,26)        180.0            estimate D2E/DX2                !
 ! D55   D(24,23,25,27)        -60.0            estimate D2E/DX2                !
 ! D56   D(24,23,25,28)         60.0            estimate D2E/DX2                !
 ! D57   D(29,23,25,26)        -60.0            estimate D2E/DX2                !
 ! D58   D(29,23,25,27)         60.0            estimate D2E/DX2                !
 ! D59   D(29,23,25,28)        180.0            estimate D2E/DX2                !
 ! D60   D(4,23,29,2)          180.0            estimate D2E/DX2                !
 ! D61   D(4,23,29,30)         -60.0            estimate D2E/DX2                !
 ! D62   D(4,23,29,31)          60.0            estimate D2E/DX2                !
 ! D63   D(24,23,29,2)          60.0            estimate D2E/DX2                !
 ! D64   D(24,23,29,30)        180.0            estimate D2E/DX2                !
 ! D65   D(24,23,29,31)        -60.0            estimate D2E/DX2                !
 ! D66   D(25,23,29,2)         -60.0            estimate D2E/DX2                !
 ! D67   D(25,23,29,30)         60.0            estimate D2E/DX2                !
 ! D68   D(25,23,29,31)        180.0            estimate D2E/DX2                !
 --------------------------------------------------------------------------------
 Trust Radius=3.00D-01 FncErr=1.00D-07 GrdErr=1.00D-06
 Number of steps in this run= 162 maximum allowed number of steps= 186.
 GradGradGradGradGradGradGradGradGradGradGradGradGradGradGradGradGradGrad

 Leave Link  103 at Sat Feb 23 03:05:51 2013, MaxMem= 2147483648 cpu:       0.6
 (Enter /home/ztw1e12/g09/l202.exe)
                          Input orientation:                          
 ---------------------------------------------------------------------
 Center     Atomic      Atomic             Coordinates (Angstroms)
 Number     Number       Type             X           Y           Z
 ---------------------------------------------------------------------
      1          6           0        1.956591   -0.497575    1.480393
      2          6           0        1.097120    0.315920    0.494931
      3          1           0        0.526493   -0.351901   -0.116050
      4          6           0        3.750081    2.991508   -0.412354
      5          1           0        4.320708    3.659330    0.198627
      6          1           0        4.412949    2.354061   -0.959316
      7          1           0        3.152916    3.556729   -1.097058
      8          8           0        2.250215   -0.015840    2.605243
      9          7           0        0.186451    1.191666    1.246364
     10          1           0       -0.371647    1.719910    0.606454
     11          7           0        2.433998   -1.836833    1.107068
     12          1           0        3.322988   -1.759970    0.655639
     13          6           0        2.567726   -2.663733    2.315064
     14          1           0        1.616506   -2.745977    2.798093
     15          1           0        2.915226   -3.638567    2.043324
     16          1           0        3.268784   -2.208549    2.983064
     17          6           0       -0.687761    0.373418    2.099080
     18          6           0       -2.107438    0.862783    2.440604
     19          1           0       -2.480550    1.463293    1.637438
     20          1           0       -2.750442    0.019660    2.584089
     21          1           0       -2.077720    1.445411    3.337578
     22          8           0       -0.276055   -0.726928    2.549976
     23          6           0        2.834239    2.134296    0.480967
     24          1           0        3.431404    1.569075    1.165671
     25          6           0        1.880205    3.051744    1.268182
     26          1           0        1.283040    3.616965    0.583478
     27          1           0        1.243874    2.456148    1.888866
     28          1           0        2.450833    3.719565    1.879164
     29          6           0        2.012962    1.173132   -0.398390
     30          1           0        1.415797    1.738353   -1.083094
     31          1           0        2.675830    0.535685   -0.945351
 ---------------------------------------------------------------------
                    Distance matrix (angstroms):
                    1          2          3          4          5
     1  C    0.000000
     2  C    1.540000   0.000000
     3  H    2.148263   1.070000   0.000000
     4  C    4.355778   3.875582   4.653783   0.000000
     5  H    4.950943   4.653783   5.530377   1.070000   0.000000
     6  H    4.485276   4.154945   4.810184   1.070000   1.747303
     7  H    4.950943   4.154945   4.810184   1.070000   1.747303
     8  O    1.258400   2.427572   3.238764   4.516595   4.856502
     9  N    2.457987   1.470000   2.086720   4.323220   4.927393
    10  H    3.331921   2.034920   2.370879   4.432106   5.093709
    11  N    1.470000   2.606971   2.709173   5.230067   5.881560
    12  H    2.034920   3.047890   3.224678   4.888718   5.529296
    13  C    2.400500   3.788654   3.927023   6.388938   6.894445
    14  H    2.628174   3.866462   3.925807   6.912152   7.422795
    15  H    3.331921   4.619632   4.601208   7.119356   7.657518
    16  H    2.628174   4.156906   4.535616   6.229053   6.579637
    17  C    2.852017   2.400500   2.628174   5.732027   6.284401
    18  C    4.391914   3.788654   3.866462   6.854295   7.359905
    19  H    4.853647   3.927023   3.925807   6.734824   7.290396
    20  H    4.862288   4.388176   4.262290   7.750313   8.302939
    21  H    4.847680   4.408628   4.683994   7.100399   7.462864
    22  O    2.486226   2.682602   2.809346   6.229923   6.774831
    23  C    2.948875   2.514809   3.444314   1.540000   2.148263
    24  H    2.558352   2.732978   3.710993   2.148263   2.468846
    25  C    3.556478   2.948875   3.915793   2.514809   2.732978
    26  H    4.264688   3.307461   4.100439   2.732978   3.062243
    27  H    3.065828   2.558352   3.524126   3.444314   3.710993
    28  H    4.264688   3.915793   4.925525   2.732978   2.514809
    29  C    2.514809   1.540000   2.148263   2.514809   3.444314
    30  H    3.444314   2.148263   2.468846   2.732978   3.710993
    31  H    2.732978   2.148263   2.468846   2.732978   3.710993
                    6          7          8          9         10
     6  H    0.000000
     7  H    1.747303   0.000000
     8  O    4.795823   5.223519   0.000000
     9  N    4.907083   4.459267   2.750226   0.000000
    10  H    5.074065   4.324165   3.725875   1.000000   0.000000
    11  N    5.074424   5.870735   2.365231   3.773947   4.557705
    12  H    4.552070   5.600728   2.827328   4.347295   5.075658
    13  C    6.269343   7.118931   2.682602   4.655823   5.547574
    14  H    6.924492   7.566826   2.809346   4.467432   5.357254
    15  H    6.868086   7.854348   3.725875   5.604686   6.448364
    16  H    6.137497   7.063940   2.447081   4.906971   5.859505
    17  C    6.268490   5.924489   3.006564   1.470000   2.034920
    18  C    7.503253   6.887940   4.448396   2.606971   2.666785
    19  H    7.420035   6.602718   5.050210   2.709173   2.361410
    20  H    8.325822   7.804572   5.000828   3.433431   3.529952
    21  H    7.836946   7.175181   4.626294   3.092577   3.231884
    22  O    6.617732   6.588507   2.625022   2.365231   3.126249
    23  C    2.148263   2.148263   3.078428   2.912931   3.234991
    24  H    2.468846   3.024610   2.445308   3.267823   3.846904
    25  C    3.444314   2.732978   3.366706   2.515784   2.698611
    26  H    3.710993   2.514809   4.268516   2.742991   2.517406
    27  H    4.262112   3.710993   2.763448   1.769143   2.190099
    28  H    3.710993   3.062243   3.810602   3.452265   3.685756
    29  C    2.732978   2.732978   3.239097   2.457987   2.644813
    30  H    3.062243   2.514809   4.168606   2.690081   2.459648
    31  H    2.514809   3.062243   3.618293   3.380966   3.619061
                   11         12         13         14         15
    11  N    0.000000
    12  H    1.000000   0.000000
    13  C    1.470000   2.034920   0.000000
    14  H    2.086720   2.911082   1.070000   0.000000
    15  H    2.086720   2.370879   1.070000   1.747303   0.000000
    16  H    2.086720   2.370879   1.070000   1.747303   1.747303
    17  C    3.951541   4.766652   4.457480   3.940671   5.392647
    18  C    5.448934   6.289234   5.857408   5.197952   6.756266
    19  H    5.943476   6.710768   6.555655   5.987565   7.436943
    20  H    5.701454   6.616083   5.962875   5.173469   6.765711
    21  H    6.008652   6.828976   6.285759   5.613028   7.242336
    22  O    3.264699   4.196284   3.448694   2.778472   4.349553
    23  C    4.040057   3.928701   5.143542   5.537961   5.981092
    24  H    3.549431   3.369633   4.470314   4.957654   5.306246
    25  C    4.922482   5.060575   5.851096   6.001977   6.814130
    26  H    5.598461   5.751349   6.640480   6.745572   7.578781
    27  H    4.522974   4.859961   5.305414   5.294115   6.321616
    28  H    5.609811   5.681811   6.399232   6.583598   7.374600
    29  C    3.391691   3.380863   4.732032   5.072878   5.470694
    30  H    4.314568   4.347279   5.679153   5.934064   6.397972
    31  H    3.146387   2.872632   4.569274   5.089680   5.139442
                   16         17         18         19         20
    16  H    0.000000
    17  C    4.806478   0.000000
    18  C    6.215393   1.540000   0.000000
    19  H    6.953271   2.148263   1.070000   0.000000
    20  H    6.430800   2.148263   1.070000   1.747303   0.000000
    21  H    6.485539   2.148263   1.070000   1.747303   1.747303
    22  O    3.866349   1.258400   2.427572   3.238764   2.584792
    23  C    5.030867   4.257167   5.465995   5.480389   6.331151
    24  H    4.195212   4.389575   5.727397   5.931691   6.528998
    25  C    5.704353   3.802403   4.697597   4.655718   5.689291
    26  H    6.605891   4.086771   4.746554   4.462482   5.762988
    27  H    5.201628   2.848362   3.751602   3.862682   4.730155
    28  H    6.085242   4.593020   5.408720   5.428419   6.421797
    29  C    4.944399   3.764412   5.013372   4.941704   5.737220
    30  H    5.961982   4.051448   5.059274   4.760092   5.810309
    31  H    4.828546   4.539673   5.869526   5.841191   6.493663
                   21         22         23         24         25
    21  H    0.000000
    22  O    2.930080   0.000000
    23  C    5.723822   4.705458   0.000000
    24  H    5.923084   4.575280   1.070000   0.000000
    25  C    4.746354   4.535506   1.540000   2.148263   0.000000
    26  H    4.857512   5.016702   2.148263   3.024610   1.070000
    27  H    3.762092   3.588764   2.148263   2.468846   1.070000
    28  H    5.273191   5.259012   2.148263   2.468846   1.070000
    29  C    5.546645   4.188400   1.540000   2.148263   2.514809
    30  H    5.642058   4.705228   2.148263   3.024610   2.732978
    31  H    6.462764   4.746065   2.148263   2.468846   3.444314
                   26         27         28         29         30
    26  H    0.000000
    27  H    1.747303   0.000000
    28  H    1.747303   1.747303   0.000000
    29  C    2.732978   2.732978   3.444314   0.000000
    30  H    2.514809   3.062243   3.710993   1.070000   0.000000
    31  H    3.710993   3.710993   4.262112   1.070000   1.747303
                   31
    31  H    0.000000
 Stoichiometry    C9H18N2O2
 Framework group  C1[X(C9H18N2O2)]
 Deg. of freedom    87
 Full point group                 C1      NOp   1
 Largest Abelian subgroup         C1      NOp   1
 Largest concise Abelian subgroup C1      NOp   1
                         Standard orientation:                         
 ---------------------------------------------------------------------
 Center     Atomic      Atomic             Coordinates (Angstroms)
 Number     Number       Type             X           Y           Z
 ---------------------------------------------------------------------
      1          6           0        0.462063    1.079454    0.006259
      2          6           0       -0.067506   -0.050970   -0.895570
      3          1           0        0.434427   -0.018573   -1.839982
      4          6           0       -3.817332    0.267669    0.030395
      5          1           0       -4.319266    0.235272    0.974806
      6          1           0       -3.999182    1.212386   -0.437944
      7          1           0       -4.185280   -0.517756   -0.596201
      8          8           0        0.478792    0.931880    1.255864
      9          7           0        0.182326   -1.348852   -0.252152
     10          1           0       -0.161551   -2.082894   -0.837755
     11          7           0        0.948020    2.330884   -0.592630
     12          1           0        0.189913    2.977929   -0.673907
     13          6           0        1.995714    2.908422    0.261589
     14          1           0        2.806889    2.216084    0.348555
     15          1           0        2.349437    3.819327   -0.174337
     16          1           0        1.593422    3.110239    1.232326
     17          6           0        1.627229   -1.523184   -0.045359
     18          6           0        2.242039   -2.935081   -0.057833
     19          1           0        1.669897   -3.567538   -0.704015
     20          1           0        3.250319   -2.881924   -0.412014
     21          1           0        2.233073   -3.336774    0.933864
     22          8           0        2.361757   -0.518700    0.141861
     23          6           0       -2.303624    0.085036    0.247035
     24          1           0       -1.935676    0.870460    0.873631
     25          6           0       -2.041895   -1.274650    0.921093
     26          1           0       -2.409843   -2.060075    0.294497
     27          1           0       -0.990163   -1.401545    1.071616
     28          1           0       -2.543829   -1.307047    1.865504
     29          6           0       -1.581214    0.131663   -1.112211
     30          1           0       -1.949162   -0.653762   -1.738807
     31          1           0       -1.763065    1.076380   -1.580550
 ---------------------------------------------------------------------
 Rotational constants (GHZ):      0.8986128      0.6597232      0.4385512
 Leave Link  202 at Sat Feb 23 03:05:51 2013, MaxMem= 2147483648 cpu:       0.7
 (Enter /home/ztw1e12/g09/l301.exe)
 Standard basis: CC-pVTZ (5D, 7F)
 Ernie: Thresh=  0.10000D-02 Tol=  0.10000D-05 Strict=F.
 Ernie:  39 primitive shells out of 482 were deleted.
 There are   642 symmetry adapted basis functions of A   symmetry.
 Integral buffers will be    131072 words long.
 Raffenetti 2 integral format.
 Two-electron integral symmetry is turned on.
   642 basis functions,   982 primitive gaussians,   725 cartesian basis functions
    51 alpha electrons       51 beta electrons
       nuclear repulsion energy       888.0076075185 Hartrees.
 IExCor= 4235 DFT=T Ex+Corr=M06 ExCW=0 ScaHFX=  0.270000
 ScaDFX=  1.000000  1.000000  1.000000  1.000000 ScalE2=  1.000000  1.000000
 IRadAn=      5 IRanWt=     -1 IRanGd=            0 ICorTp=0
 NAtoms=   31 NActive=   31 NUniq=   31 SFac= 7.50D-01 NAtFMM=   80 NAOKFM=F Big=F
 Leave Link  301 at Sat Feb 23 03:05:51 2013, MaxMem= 2147483648 cpu:       1.9
 (Enter /home/ztw1e12/g09/l302.exe)
 NPDir=0 NMtPBC=     1 NCelOv=     1 NCel=       1 NClECP=     1 NCelD=      1
         NCelK=      1 NCelE2=     1 NClLst=     1 CellRange=     0.0.
 One-electron integrals computed using PRISM.
 NBasis=   642 RedAO= T  NBF=   642
 NBsUse=   642 1.00D-06 NBFU=   642
 Precomputing XC quadrature grid using
 IXCGrd= 2 IRadAn=           5 IRanWt=          -1 IRanGd=           0 AccXCQ= 1.00D-10.
 NRdTot=    2604 NPtTot=      699314 NUsed=      717958 NTot=      717990
 NSgBfM=   724   724   724   724   724 NAtAll=    31    31.
 Leave Link  302 at Sat Feb 23 03:05:53 2013, MaxMem= 2147483648 cpu:      20.3
 (Enter /home/ztw1e12/g09/l303.exe)
 DipDrv:  MaxL=1.
 Leave Link  303 at Sat Feb 23 03:05:53 2013, MaxMem= 2147483648 cpu:       2.8
 (Enter /home/ztw1e12/g09/l401.exe)
 Harris functional with IExCor= 1009 diagonalized for initial guess.
 ExpMin= 1.03D-01 ExpMax= 1.53D+04 ExpMxC= 5.22D+02 IAcc=3 IRadAn=         5 AccDes= 0.00D+00
 HarFok:  IExCor= 1009 AccDes= 0.00D+00 IRadAn=         5 IDoV= 1
 ScaDFX=  1.000000  1.000000  1.000000  1.000000
 FoFCou: FMM=F IPFlag=           0 FMFlag=      100000 FMFlg1=           0
         NFxFlg=           0 DoJE=T BraDBF=F KetDBF=T FulRan=T
         Omega=  0.000000  0.000000  1.000000  0.000000  0.000000 ICntrl=     500 IOpCl=  0
         NMat0=    1 NMatS0=    1 NMatT0=    0 NMatD0=    1 NMtDS0=    0 NMtDT0=    0
         I1Cent=           4 NGrid=           0.
 Petite list used in FoFCou.
 Harris En= -613.558511605677    
 Initial guess orbital symmetries:
       Occupied  (A) (A) (A) (A) (A) (A) (A) (A) (A) (A) (A) (A)
                 (A) (A) (A) (A) (A) (A) (A) (A) (A) (A) (A) (A)
                 (A) (A) (A) (A) (A) (A) (A) (A) (A) (A) (A) (A)
                 (A) (A) (A) (A) (A) (A) (A) (A) (A) (A) (A) (A)
                 (A) (A) (A)
       Virtual   (A) (A) (A) (A) (A) (A) (A) (A) (A) (A) (A) (A)
                 (A) (A) (A) (A) (A) (A) (A) (A) (A) (A) (A) (A)
                 (A) (A) (A) (A) (A) (A) (A) (A) (A) (A) (A) (A)
                 (A) (A) (A) (A) (A) (A) (A) (A) (A) (A) (A) (A)
                 (A) (A) (A) (A) (A) (A) (A) (A) (A) (A) (A) (A)
                 (A) (A) (A) (A) (A) (A) (A) (A) (A) (A) (A) (A)
                 (A) (A) (A) (A) (A) (A) (A) (A) (A) (A) (A) (A)
                 (A) (A) (A) (A) (A) (A) (A) (A) (A) (A) (A) (A)
                 (A) (A) (A) (A) (A) (A) (A) (A) (A) (A) (A) (A)
                 (A) (A) (A) (A) (A) (A) (A) (A) (A) (A) (A) (A)
                 (A) (A) (A) (A) (A) (A) (A) (A) (A) (A) (A) (A)
                 (A) (A) (A) (A) (A) (A) (A) (A) (A) (A) (A) (A)
                 (A) (A) (A) (A) (A) (A) (A) (A) (A) (A) (A) (A)
                 (A) (A) (A) (A) (A) (A) (A) (A) (A) (A) (A) (A)
                 (A) (A) (A) (A) (A) (A) (A) (A) (A) (A) (A) (A)
                 (A) (A) (A) (A) (A) (A) (A) (A) (A) (A) (A) (A)
                 (A) (A) (A) (A) (A) (A) (A) (A) (A) (A) (A) (A)
                 (A) (A) (A) (A) (A) (A) (A) (A) (A) (A) (A) (A)
                 (A) (A) (A) (A) (A) (A) (A) (A) (A) (A) (A) (A)
                 (A) (A) (A) (A) (A) (A) (A) (A) (A) (A) (A) (A)
                 (A) (A) (A) (A) (A) (A) (A) (A) (A) (A) (A) (A)
                 (A) (A) (A) (A) (A) (A) (A) (A) (A) (A) (A) (A)
                 (A) (A) (A) (A) (A) (A) (A) (A) (A) (A) (A) (A)
                 (A) (A) (A) (A) (A) (A) (A) (A) (A) (A) (A) (A)
                 (A) (A) (A) (A) (A) (A) (A) (A) (A) (A) (A) (A)
                 (A) (A) (A) (A) (A) (A) (A) (A) (A) (A) (A) (A)
                 (A) (A) (A) (A) (A) (A) (A) (A) (A) (A) (A) (A)
                 (A) (A) (A) (A) (A) (A) (A) (A) (A) (A) (A) (A)
                 (A) (A) (A) (A) (A) (A) (A) (A) (A) (A) (A) (A)
                 (A) (A) (A) (A) (A) (A) (A) (A) (A) (A) (A) (A)
                 (A) (A) (A) (A) (A) (A) (A) (A) (A) (A) (A) (A)
                 (A) (A) (A) (A) (A) (A) (A) (A) (A) (A) (A) (A)
                 (A) (A) (A) (A) (A) (A) (A) (A) (A) (A) (A) (A)
                 (A) (A) (A) (A) (A) (A) (A) (A) (A) (A) (A) (A)
                 (A) (A) (A) (A) (A) (A) (A) (A) (A) (A) (A) (A)
                 (A) (A) (A) (A) (A) (A) (A) (A) (A) (A) (A) (A)
                 (A) (A) (A) (A) (A) (A) (A) (A) (A) (A) (A) (A)
                 (A) (A) (A) (A) (A) (A) (A) (A) (A) (A) (A) (A)
                 (A) (A) (A) (A) (A) (A) (A) (A) (A) (A) (A) (A)
                 (A) (A) (A) (A) (A) (A) (A) (A) (A) (A) (A) (A)
                 (A) (A) (A) (A) (A) (A) (A) (A) (A) (A) (A) (A)
                 (A) (A) (A) (A) (A) (A) (A) (A) (A) (A) (A) (A)
                 (A) (A) (A) (A) (A) (A) (A) (A) (A) (A) (A) (A)
                 (A) (A) (A) (A) (A) (A) (A) (A) (A) (A) (A) (A)
                 (A) (A) (A) (A) (A) (A) (A) (A) (A) (A) (A) (A)
                 (A) (A) (A) (A) (A) (A) (A) (A) (A) (A) (A) (A)
                 (A) (A) (A) (A) (A) (A) (A) (A) (A) (A) (A) (A)
                 (A) (A) (A) (A) (A) (A) (A) (A) (A) (A) (A) (A)
                 (A) (A) (A) (A) (A) (A) (A) (A) (A) (A) (A) (A)
                 (A) (A) (A)
 The electronic state of the initial guess is 1-A.
 Leave Link  401 at Sat Feb 23 03:06:03 2013, MaxMem= 2147483648 cpu:     118.4
 (Enter /home/ztw1e12/g09/l502.exe)
 Closed shell SCF:
 Requested convergence on RMS density matrix=1.00D-08 within 128 cycles.
 Requested convergence on MAX density matrix=1.00D-06.
 Requested convergence on             energy=1.00D-06.
 No special actions if energy rises.
 Using DIIS extrapolation, IDIIS=  1040.
 Integral symmetry usage will be decided dynamically.
       717666 words used for storage of precomputed grid.
 IEnd=     2326679 IEndB=     2326679 NGot=  2147483648 MDV=  2145699960
 LenX=  2145699960 LenY=  2145173610
 Fock matrices will be formed incrementally for  20 cycles.
 Integral accuracy reduced to 1.0D-05 until final iterations.

 Cycle   1  Pass 0  IDiag  1:
 FoFCou: FMM=F IPFlag=           0 FMFlag=      100000 FMFlg1=           0
         NFxFlg=           0 DoJE=F BraDBF=F KetDBF=F FulRan=T
         Omega=  0.000000  0.000000  1.000000  0.000000  0.000000 ICntrl=       0 IOpCl=  0
         NMat0=    1 NMatS0=    1 NMatT0=    0 NMatD0=    1 NMtDS0=    0 NMtDT0=    0
         I1Cent=           0 NGrid=           0.
 Symmetry not used in FoFCou.
 E= -613.045025652416    
 DIIS: error= 2.29D-02 at cycle   1 NSaved=   1.
 NSaved= 1 IEnMin= 1 EnMin= -613.045025652416     IErMin= 1 ErrMin= 2.29D-02
 ErrMax= 2.29D-02 EMaxC= 1.00D-01 BMatC= 4.91D-01 BMatP= 4.91D-01
 IDIUse=3 WtCom= 7.71D-01 WtEn= 2.29D-01
 Coeff-Com:  0.100D+01
 Coeff-En:   0.100D+01
 Coeff:      0.100D+01
 Gap=     0.197 Goal=   None    Shift=    0.000
 GapD=    0.197 DampG=1.000 DampE=0.500 DampFc=0.5000 IDamp=-1.
 Damping current iteration by 5.00D-01
 RMSDP=2.42D-03 MaxDP=1.85D-01              OVMax= 2.27D-01

 Cycle   2  Pass 0  IDiag  1:
 RMSU=  8.57D-04    CP:  9.96D-01
 E= -613.193681109294     Delta-E=       -0.148655456878 Rises=F Damp=T
 DIIS: error= 5.51D-03 at cycle   2 NSaved=   2.
 NSaved= 2 IEnMin= 2 EnMin= -613.193681109294     IErMin= 2 ErrMin= 5.51D-03
 ErrMax= 5.51D-03 EMaxC= 1.00D-01 BMatC= 5.77D-02 BMatP= 4.91D-01
 IDIUse=3 WtCom= 9.45D-01 WtEn= 5.51D-02
 Coeff-Com:  0.193D+00 0.807D+00
 Coeff-En:   0.288D+00 0.712D+00
 Coeff:      0.198D+00 0.802D+00
 Gap=     0.304 Goal=   None    Shift=    0.000
 RMSDP=7.99D-04 MaxDP=3.37D-02 DE=-1.49D-01 OVMax= 1.70D-01

 Cycle   3  Pass 0  IDiag  1:
 RMSU=  4.87D-04    CP:  9.99D-01  6.65D-01
 E= -613.446434644705     Delta-E=       -0.252753535411 Rises=F Damp=F
 DIIS: error= 7.31D-03 at cycle   3 NSaved=   3.
 NSaved= 3 IEnMin= 3 EnMin= -613.446434644705     IErMin= 2 ErrMin= 5.51D-03
 ErrMax= 7.31D-03 EMaxC= 1.00D-01 BMatC= 6.19D-02 BMatP= 5.77D-02
 IDIUse=3 WtCom= 9.27D-01 WtEn= 7.31D-02
 Coeff-Com:  0.699D-01 0.509D+00 0.421D+00
 Coeff-En:   0.000D+00 0.000D+00 0.100D+01
 Coeff:      0.648D-01 0.472D+00 0.464D+00
 Gap=     0.242 Goal=   None    Shift=    0.000
 RMSDP=3.13D-04 MaxDP=2.01D-02 DE=-2.53D-01 OVMax= 5.95D-02

 Cycle   4  Pass 0  IDiag  1:
 RMSU=  2.09D-04    CP:  1.00D+00  6.94D-01  8.60D-01
 E= -613.491172420967     Delta-E=       -0.044737776262 Rises=F Damp=F
 DIIS: error= 1.60D-03 at cycle   4 NSaved=   4.
 NSaved= 4 IEnMin= 4 EnMin= -613.491172420967     IErMin= 4 ErrMin= 1.60D-03
 ErrMax= 1.60D-03 EMaxC= 1.00D-01 BMatC= 5.76D-03 BMatP= 5.77D-02
 IDIUse=3 WtCom= 9.84D-01 WtEn= 1.60D-02
 Coeff-Com:  0.127D-01 0.114D+00 0.251D+00 0.623D+00
 Coeff-En:   0.000D+00 0.000D+00 0.670D-01 0.933D+00
 Coeff:      0.125D-01 0.112D+00 0.248D+00 0.628D+00
 Gap=     0.234 Goal=   None    Shift=    0.000
 RMSDP=9.44D-05 MaxDP=5.29D-03 DE=-4.47D-02 OVMax= 1.60D-02

 Cycle   5  Pass 0  IDiag  1:
 RMSU=  4.48D-05    CP:  1.00D+00  6.90D-01  8.90D-01  7.75D-01
 E= -613.495108080789     Delta-E=       -0.003935659822 Rises=F Damp=F
 DIIS: error= 5.76D-04 at cycle   5 NSaved=   5.
 NSaved= 5 IEnMin= 5 EnMin= -613.495108080789     IErMin= 5 ErrMin= 5.76D-04
 ErrMax= 5.76D-04 EMaxC= 1.00D-01 BMatC= 4.65D-04 BMatP= 5.76D-03
 IDIUse=3 WtCom= 9.94D-01 WtEn= 5.76D-03
 Coeff-Com:  0.126D-02 0.150D-01 0.903D-01 0.329D+00 0.564D+00
 Coeff-En:   0.000D+00 0.000D+00 0.000D+00 0.764D-02 0.992D+00
 Coeff:      0.126D-02 0.149D-01 0.898D-01 0.327D+00 0.567D+00
 Gap=     0.234 Goal=   None    Shift=    0.000
 RMSDP=2.88D-05 MaxDP=1.56D-03 DE=-3.94D-03 OVMax= 5.91D-03

 Cycle   6  Pass 0  IDiag  1:
 RMSU=  1.35D-05    CP:  1.00D+00  6.94D-01  8.92D-01  8.15D-01  7.24D-01
 E= -613.495479074951     Delta-E=       -0.000370994162 Rises=F Damp=F
 DIIS: error= 1.63D-04 at cycle   6 NSaved=   6.
 NSaved= 6 IEnMin= 6 EnMin= -613.495479074951     IErMin= 6 ErrMin= 1.63D-04
 ErrMax= 1.63D-04 EMaxC= 1.00D-01 BMatC= 4.40D-05 BMatP= 4.65D-04
 IDIUse=3 WtCom= 9.98D-01 WtEn= 1.63D-03
 Coeff-Com: -0.326D-03-0.403D-02 0.176D-01 0.855D-01 0.283D+00 0.618D+00
 Coeff-En:   0.000D+00 0.000D+00 0.000D+00 0.000D+00 0.114D-01 0.989D+00
 Coeff:     -0.325D-03-0.402D-02 0.175D-01 0.854D-01 0.283D+00 0.618D+00
 Gap=     0.234 Goal=   None    Shift=    0.000
 RMSDP=8.43D-06 MaxDP=4.97D-04 DE=-3.71D-04 OVMax= 1.30D-03

 Initial convergence to 1.0D-05 achieved.  Increase integral accuracy.
 Cycle   7  Pass 1  IDiag  1:
 E= -613.495482598137     Delta-E=       -0.000003523186 Rises=F Damp=F
 DIIS: error= 5.77D-05 at cycle   1 NSaved=   1.
 NSaved= 1 IEnMin= 1 EnMin= -613.495482598137     IErMin= 1 ErrMin= 5.77D-05
 ErrMax= 5.77D-05 EMaxC= 1.00D-01 BMatC= 7.46D-06 BMatP= 7.46D-06
 IDIUse=1 WtCom= 1.00D+00 WtEn= 0.00D+00
 Coeff-Com:  0.100D+01
 Coeff:      0.100D+01
 Gap=     0.233 Goal=   None    Shift=    0.000
 RMSDP=8.43D-06 MaxDP=4.97D-04 DE=-3.52D-06 OVMax= 1.02D-03

 Cycle   8  Pass 1  IDiag  1:
 RMSU=  1.02D-05    CP:  1.00D+00
 E= -613.495475752086     Delta-E=        0.000006846050 Rises=F Damp=F
 DIIS: error= 1.44D-04 at cycle   2 NSaved=   2.
 NSaved= 2 IEnMin= 1 EnMin= -613.495482598137     IErMin= 1 ErrMin= 5.77D-05
 ErrMax= 1.44D-04 EMaxC= 1.00D-01 BMatC= 1.75D-05 BMatP= 7.46D-06
 IDIUse=3 WtCom= 4.55D-01 WtEn= 5.45D-01
 Coeff-Com:  0.616D+00 0.384D+00
 Coeff-En:   0.674D+00 0.326D+00
 Coeff:      0.647D+00 0.353D+00
 Gap=     0.234 Goal=   None    Shift=    0.000
 RMSDP=4.19D-06 MaxDP=3.36D-04 DE= 6.85D-06 OVMax= 7.29D-04

 Cycle   9  Pass 1  IDiag  1:
 RMSU=  2.74D-06    CP:  1.00D+00  8.90D-01
 E= -613.495488313909     Delta-E=       -0.000012561822 Rises=F Damp=F
 DIIS: error= 1.85D-05 at cycle   3 NSaved=   3.
 NSaved= 3 IEnMin= 3 EnMin= -613.495488313909     IErMin= 3 ErrMin= 1.85D-05
 ErrMax= 1.85D-05 EMaxC= 1.00D-01 BMatC= 3.98D-07 BMatP= 7.46D-06
 IDIUse=1 WtCom= 1.00D+00 WtEn= 0.00D+00
 Coeff-Com:  0.175D+00 0.138D+00 0.687D+00
 Coeff:      0.175D+00 0.138D+00 0.687D+00
 Gap=     0.234 Goal=   None    Shift=    0.000
 RMSDP=1.32D-06 MaxDP=7.10D-05 DE=-1.26D-05 OVMax= 1.92D-04

 Cycle  10  Pass 1  IDiag  1:
 RMSU=  9.15D-07    CP:  1.00D+00  9.05D-01  1.03D+00
 E= -613.495488408572     Delta-E=       -0.000000094663 Rises=F Damp=F
 DIIS: error= 1.09D-05 at cycle   4 NSaved=   4.
 NSaved= 4 IEnMin= 4 EnMin= -613.495488408572     IErMin= 4 ErrMin= 1.09D-05
 ErrMax= 1.09D-05 EMaxC= 1.00D-01 BMatC= 2.69D-07 BMatP= 3.98D-07
 IDIUse=1 WtCom= 1.00D+00 WtEn= 0.00D+00
 Coeff-Com: -0.522D-02 0.149D-01 0.458D+00 0.533D+00
 Coeff:     -0.522D-02 0.149D-01 0.458D+00 0.533D+00
 Gap=     0.234 Goal=   None    Shift=    0.000
 RMSDP=6.77D-07 MaxDP=4.16D-05 DE=-9.47D-08 OVMax= 1.19D-04

 Cycle  11  Pass 1  IDiag  1:
 RMSU=  3.03D-07    CP:  1.00D+00  9.19D-01  1.05D+00  6.32D-01
 E= -613.495488619116     Delta-E=       -0.000000210544 Rises=F Damp=F
 DIIS: error= 2.73D-06 at cycle   5 NSaved=   5.
 NSaved= 5 IEnMin= 5 EnMin= -613.495488619116     IErMin= 5 ErrMin= 2.73D-06
 ErrMax= 2.73D-06 EMaxC= 1.00D-01 BMatC= 9.76D-09 BMatP= 2.69D-07
 IDIUse=1 WtCom= 1.00D+00 WtEn= 0.00D+00
 Coeff-Com: -0.106D-01 0.168D-02 0.205D+00 0.283D+00 0.521D+00
 Coeff:     -0.106D-01 0.168D-02 0.205D+00 0.283D+00 0.521D+00
 Gap=     0.234 Goal=   None    Shift=    0.000
 RMSDP=1.56D-07 MaxDP=6.34D-06 DE=-2.11D-07 OVMax= 2.36D-05

 Cycle  12  Pass 1  IDiag  1:
 RMSU=  9.75D-08    CP:  1.00D+00  9.21D-01  1.05D+00  6.77D-01  9.36D-01
 E= -613.495488627303     Delta-E=       -0.000000008188 Rises=F Damp=F
 DIIS: error= 8.37D-07 at cycle   6 NSaved=   6.
 NSaved= 6 IEnMin= 6 EnMin= -613.495488627303     IErMin= 6 ErrMin= 8.37D-07
 ErrMax= 8.37D-07 EMaxC= 1.00D-01 BMatC= 7.06D-10 BMatP= 9.76D-09
 IDIUse=1 WtCom= 1.00D+00 WtEn= 0.00D+00
 Coeff-Com: -0.408D-02-0.103D-02 0.327D-01 0.591D-01 0.235D+00 0.678D+00
 Coeff:     -0.408D-02-0.103D-02 0.327D-01 0.591D-01 0.235D+00 0.678D+00
 Gap=     0.234 Goal=   None    Shift=    0.000
 RMSDP=4.64D-08 MaxDP=2.89D-06 DE=-8.19D-09 OVMax= 5.55D-06

 Cycle  13  Pass 1  IDiag  1:
 RMSU=  2.45D-08    CP:  1.00D+00  9.22D-01  1.05D+00  6.86D-01  9.97D-01
                    CP:  9.77D-01
 E= -613.495488627802     Delta-E=       -0.000000000499 Rises=F Damp=F
 DIIS: error= 2.76D-07 at cycle   7 NSaved=   7.
 NSaved= 7 IEnMin= 7 EnMin= -613.495488627802     IErMin= 7 ErrMin= 2.76D-07
 ErrMax= 2.76D-07 EMaxC= 1.00D-01 BMatC= 1.37D-10 BMatP= 7.06D-10
 IDIUse=1 WtCom= 1.00D+00 WtEn= 0.00D+00
 Coeff-Com: -0.925D-03-0.747D-03-0.606D-02-0.763D-03 0.659D-01 0.362D+00
 Coeff-Com:  0.580D+00
 Coeff:     -0.925D-03-0.747D-03-0.606D-02-0.763D-03 0.659D-01 0.362D+00
 Coeff:      0.580D+00
 Gap=     0.234 Goal=   None    Shift=    0.000
 RMSDP=1.80D-08 MaxDP=1.46D-06 DE=-4.99D-10 OVMax= 3.17D-06

 Cycle  14  Pass 1  IDiag  1:
 RMSU=  9.23D-09    CP:  1.00D+00  9.22D-01  1.05D+00  6.89D-01  1.01D+00
                    CP:  1.00D+00  8.23D-01
 E= -613.495488627893     Delta-E=       -0.000000000091 Rises=F Damp=F
 DIIS: error= 1.35D-07 at cycle   8 NSaved=   8.
 NSaved= 8 IEnMin= 8 EnMin= -613.495488627893     IErMin= 8 ErrMin= 1.35D-07
 ErrMax= 1.35D-07 EMaxC= 1.00D-01 BMatC= 3.25D-11 BMatP= 1.37D-10
 IDIUse=1 WtCom= 1.00D+00 WtEn= 0.00D+00
 Coeff-Com: -0.585D-04-0.363D-03-0.837D-02-0.851D-02 0.112D-01 0.146D+00
 Coeff-Com:  0.378D+00 0.482D+00
 Coeff:     -0.585D-04-0.363D-03-0.837D-02-0.851D-02 0.112D-01 0.146D+00
 Coeff:      0.378D+00 0.482D+00
 Gap=     0.234 Goal=   None    Shift=    0.000
 RMSDP=8.00D-09 MaxDP=5.27D-07 DE=-9.09D-11 OVMax= 1.44D-06

 SCF Done:  E(RM06) =  -613.495488628     A.U. after   14 cycles
             Convg  =    0.8000D-08             -V/T =  2.0074
 KE= 6.089775447204D+02 PE=-3.205920938599D+03 EE= 1.095440297732D+03
 Leave Link  502 at Sat Feb 23 03:20:37 2013, MaxMem= 2147483648 cpu:   10475.1
 (Enter /home/ztw1e12/g09/l601.exe)
 Copying SCF densities to generalized density rwf, IOpCl= 0 IROHF=0.

 **********************************************************************

            Population analysis using the SCF density.

 **********************************************************************

 Orbital symmetries:
       Occupied  (A) (A) (A) (A) (A) (A) (A) (A) (A) (A) (A) (A)
                 (A) (A) (A) (A) (A) (A) (A) (A) (A) (A) (A) (A)
                 (A) (A) (A) (A) (A) (A) (A) (A) (A) (A) (A) (A)
                 (A) (A) (A) (A) (A) (A) (A) (A) (A) (A) (A) (A)
                 (A) (A) (A)
       Virtual   (A) (A) (A) (A) (A) (A) (A) (A) (A) (A) (A) (A)
                 (A) (A) (A) (A) (A) (A) (A) (A) (A) (A) (A) (A)
                 (A) (A) (A) (A) (A) (A) (A) (A) (A) (A) (A) (A)
                 (A) (A) (A) (A) (A) (A) (A) (A) (A) (A) (A) (A)
                 (A) (A) (A) (A) (A) (A) (A) (A) (A) (A) (A) (A)
                 (A) (A) (A) (A) (A) (A) (A) (A) (A) (A) (A) (A)
                 (A) (A) (A) (A) (A) (A) (A) (A) (A) (A) (A) (A)
                 (A) (A) (A) (A) (A) (A) (A) (A) (A) (A) (A) (A)
                 (A) (A) (A) (A) (A) (A) (A) (A) (A) (A) (A) (A)
                 (A) (A) (A) (A) (A) (A) (A) (A) (A) (A) (A) (A)
                 (A) (A) (A) (A) (A) (A) (A) (A) (A) (A) (A) (A)
                 (A) (A) (A) (A) (A) (A) (A) (A) (A) (A) (A) (A)
                 (A) (A) (A) (A) (A) (A) (A) (A) (A) (A) (A) (A)
                 (A) (A) (A) (A) (A) (A) (A) (A) (A) (A) (A) (A)
                 (A) (A) (A) (A) (A) (A) (A) (A) (A) (A) (A) (A)
                 (A) (A) (A) (A) (A) (A) (A) (A) (A) (A) (A) (A)
                 (A) (A) (A) (A) (A) (A) (A) (A) (A) (A) (A) (A)
                 (A) (A) (A) (A) (A) (A) (A) (A) (A) (A) (A) (A)
                 (A) (A) (A) (A) (A) (A) (A) (A) (A) (A) (A) (A)
                 (A) (A) (A) (A) (A) (A) (A) (A) (A) (A) (A) (A)
                 (A) (A) (A) (A) (A) (A) (A) (A) (A) (A) (A) (A)
                 (A) (A) (A) (A) (A) (A) (A) (A) (A) (A) (A) (A)
                 (A) (A) (A) (A) (A) (A) (A) (A) (A) (A) (A) (A)
                 (A) (A) (A) (A) (A) (A) (A) (A) (A) (A) (A) (A)
                 (A) (A) (A) (A) (A) (A) (A) (A) (A) (A) (A) (A)
                 (A) (A) (A) (A) (A) (A) (A) (A) (A) (A) (A) (A)
                 (A) (A) (A) (A) (A) (A) (A) (A) (A) (A) (A) (A)
                 (A) (A) (A) (A) (A) (A) (A) (A) (A) (A) (A) (A)
                 (A) (A) (A) (A) (A) (A) (A) (A) (A) (A) (A) (A)
                 (A) (A) (A) (A) (A) (A) (A) (A) (A) (A) (A) (A)
                 (A) (A) (A) (A) (A) (A) (A) (A) (A) (A) (A) (A)
                 (A) (A) (A) (A) (A) (A) (A) (A) (A) (A) (A) (A)
                 (A) (A) (A) (A) (A) (A) (A) (A) (A) (A) (A) (A)
                 (A) (A) (A) (A) (A) (A) (A) (A) (A) (A) (A) (A)
                 (A) (A) (A) (A) (A) (A) (A) (A) (A) (A) (A) (A)
                 (A) (A) (A) (A) (A) (A) (A) (A) (A) (A) (A) (A)
                 (A) (A) (A) (A) (A) (A) (A) (A) (A) (A) (A) (A)
                 (A) (A) (A) (A) (A) (A) (A) (A) (A) (A) (A) (A)
                 (A) (A) (A) (A) (A) (A) (A) (A) (A) (A) (A) (A)
                 (A) (A) (A) (A) (A) (A) (A) (A) (A) (A) (A) (A)
                 (A) (A) (A) (A) (A) (A) (A) (A) (A) (A) (A) (A)
                 (A) (A) (A) (A) (A) (A) (A) (A) (A) (A) (A) (A)
                 (A) (A) (A) (A) (A) (A) (A) (A) (A) (A) (A) (A)
                 (A) (A) (A) (A) (A) (A) (A) (A) (A) (A) (A) (A)
                 (A) (A) (A) (A) (A) (A) (A) (A) (A) (A) (A) (A)
                 (A) (A) (A) (A) (A) (A) (A) (A) (A) (A) (A) (A)
                 (A) (A) (A) (A) (A) (A) (A) (A) (A) (A) (A) (A)
                 (A) (A) (A) (A) (A) (A) (A) (A) (A) (A) (A) (A)
                 (A) (A) (A) (A) (A) (A) (A) (A) (A) (A) (A) (A)
                 (A) (A) (A)
 The electronic state is 1-A.
 Alpha  occ. eigenvalues --  -19.19990 -19.19074 -14.42501 -14.39322 -10.36650
 Alpha  occ. eigenvalues --  -10.35654 -10.29659 -10.25392 -10.24953 -10.24010
 Alpha  occ. eigenvalues --  -10.23693 -10.21698 -10.19550  -1.05667  -1.03411
 Alpha  occ. eigenvalues --   -0.94573  -0.90770  -0.82657  -0.77528  -0.74894
 Alpha  occ. eigenvalues --   -0.69313  -0.68901  -0.65662  -0.60236  -0.57407
 Alpha  occ. eigenvalues --   -0.56215  -0.52556  -0.51731  -0.49963  -0.47621
 Alpha  occ. eigenvalues --   -0.46431  -0.46016  -0.45032  -0.44611  -0.43226
 Alpha  occ. eigenvalues --   -0.42330  -0.41931  -0.41259  -0.40164  -0.39560
 Alpha  occ. eigenvalues --   -0.38645  -0.38367  -0.38009  -0.36448  -0.34477
 Alpha  occ. eigenvalues --   -0.33374  -0.33243  -0.28299  -0.27733  -0.26032
 Alpha  occ. eigenvalues --   -0.25285
 Alpha virt. eigenvalues --   -0.01909  -0.00309   0.01623   0.02824   0.05171
 Alpha virt. eigenvalues --    0.05879   0.07357   0.08129   0.08613   0.09238
 Alpha virt. eigenvalues --    0.10105   0.10267   0.10745   0.11684   0.12059
 Alpha virt. eigenvalues --    0.13099   0.13680   0.14241   0.14625   0.15484
 Alpha virt. eigenvalues --    0.15991   0.17028   0.17698   0.18165   0.19509
 Alpha virt. eigenvalues --    0.20653   0.21068   0.23125   0.23666   0.24732
 Alpha virt. eigenvalues --    0.25280   0.26222   0.27160   0.27579   0.28534
 Alpha virt. eigenvalues --    0.28864   0.30129   0.31358   0.31926   0.32215
 Alpha virt. eigenvalues --    0.32775   0.34476   0.35443   0.36453   0.37090
 Alpha virt. eigenvalues --    0.37310   0.37642   0.38762   0.39118   0.39688
 Alpha virt. eigenvalues --    0.40066   0.40335   0.41278   0.41519   0.41990
 Alpha virt. eigenvalues --    0.42102   0.42663   0.42975   0.43468   0.43918
 Alpha virt. eigenvalues --    0.44478   0.45000   0.45198   0.45560   0.46107
 Alpha virt. eigenvalues --    0.46445   0.47191   0.47497   0.48436   0.48873
 Alpha virt. eigenvalues --    0.49764   0.50633   0.51291   0.51904   0.53010
 Alpha virt. eigenvalues --    0.53878   0.54136   0.54863   0.56591   0.57838
 Alpha virt. eigenvalues --    0.59630   0.60159   0.61145   0.61668   0.63147
 Alpha virt. eigenvalues --    0.63656   0.65818   0.66930   0.67551   0.69688
 Alpha virt. eigenvalues --    0.69772   0.70674   0.72635   0.73293   0.74147
 Alpha virt. eigenvalues --    0.74912   0.76793   0.78352   0.78528   0.80696
 Alpha virt. eigenvalues --    0.82502   0.83015   0.83489   0.84943   0.85188
 Alpha virt. eigenvalues --    0.86643   0.87275   0.88120   0.89122   0.89328
 Alpha virt. eigenvalues --    0.89672   0.90446   0.91006   0.91823   0.93006
 Alpha virt. eigenvalues --    0.94250   0.94588   0.95127   0.96114   0.97440
 Alpha virt. eigenvalues --    0.98136   0.98802   0.99622   1.00280   1.01322
 Alpha virt. eigenvalues --    1.01677   1.02245   1.03471   1.03785   1.05406
 Alpha virt. eigenvalues --    1.06226   1.06984   1.07563   1.08180   1.09378
 Alpha virt. eigenvalues --    1.10126   1.11041   1.11332   1.12345   1.12998
 Alpha virt. eigenvalues --    1.13688   1.14360   1.15392   1.16645   1.17862
 Alpha virt. eigenvalues --    1.18274   1.19497   1.20003   1.20732   1.21423
 Alpha virt. eigenvalues --    1.21767   1.22325   1.23704   1.24014   1.24099
 Alpha virt. eigenvalues --    1.25371   1.25972   1.26710   1.26815   1.27768
 Alpha virt. eigenvalues --    1.28243   1.29792   1.30639   1.31007   1.31610
 Alpha virt. eigenvalues --    1.32284   1.33151   1.34211   1.35280   1.36216
 Alpha virt. eigenvalues --    1.36595   1.37915   1.38128   1.38891   1.40656
 Alpha virt. eigenvalues --    1.41236   1.41616   1.43661   1.44395   1.45816
 Alpha virt. eigenvalues --    1.46117   1.47530   1.48564   1.49075   1.49614
 Alpha virt. eigenvalues --    1.50568   1.51364   1.52972   1.54355   1.56062
 Alpha virt. eigenvalues --    1.56508   1.59343   1.60089   1.60844   1.61659
 Alpha virt. eigenvalues --    1.63267   1.66696   1.68715   1.68818   1.71468
 Alpha virt. eigenvalues --    1.72181   1.73017   1.74745   1.76955   1.78257
 Alpha virt. eigenvalues --    1.81585   1.82683   1.84064   1.85204   1.86583
 Alpha virt. eigenvalues --    1.89600   1.93072   1.94409   1.97611   2.04895
 Alpha virt. eigenvalues --    2.07668   2.10869   2.12675   2.14794   2.16829
 Alpha virt. eigenvalues --    2.19421   2.22393   2.23760   2.24184   2.25062
 Alpha virt. eigenvalues --    2.28232   2.29074   2.30880   2.31569   2.35196
 Alpha virt. eigenvalues --    2.35614   2.37275   2.38251   2.39077   2.39908
 Alpha virt. eigenvalues --    2.41303   2.42548   2.44188   2.45622   2.46437
 Alpha virt. eigenvalues --    2.47295   2.49495   2.51609   2.52704   2.53085
 Alpha virt. eigenvalues --    2.53579   2.54796   2.56059   2.56472   2.57926
 Alpha virt. eigenvalues --    2.58644   2.60175   2.60519   2.62500   2.62964
 Alpha virt. eigenvalues --    2.64397   2.66223   2.66876   2.68298   2.68585
 Alpha virt. eigenvalues --    2.69829   2.70033   2.71736   2.71930   2.72819
 Alpha virt. eigenvalues --    2.73683   2.74396   2.75039   2.75731   2.76017
 Alpha virt. eigenvalues --    2.77084   2.78284   2.79899   2.80575   2.81549
 Alpha virt. eigenvalues --    2.82056   2.84201   2.85388   2.85683   2.86554
 Alpha virt. eigenvalues --    2.88144   2.88613   2.89501   2.90317   2.91691
 Alpha virt. eigenvalues --    2.92335   2.93518   2.93902   2.95516   2.96357
 Alpha virt. eigenvalues --    2.96925   2.97893   2.98691   2.99617   3.00975
 Alpha virt. eigenvalues --    3.01486   3.02422   3.02510   3.03430   3.04757
 Alpha virt. eigenvalues --    3.05074   3.06021   3.06872   3.07174   3.08348
 Alpha virt. eigenvalues --    3.08783   3.09286   3.10349   3.11014   3.11453
 Alpha virt. eigenvalues --    3.13136   3.14454   3.15300   3.15535   3.16572
 Alpha virt. eigenvalues --    3.17723   3.18606   3.20061   3.20188   3.22098
 Alpha virt. eigenvalues --    3.23174   3.23877   3.24980   3.26479   3.27027
 Alpha virt. eigenvalues --    3.27450   3.28080   3.29158   3.30123   3.30547
 Alpha virt. eigenvalues --    3.31025   3.32322   3.33122   3.34967   3.35724
 Alpha virt. eigenvalues --    3.36480   3.37299   3.38255   3.38610   3.39857
 Alpha virt. eigenvalues --    3.40846   3.41192   3.42829   3.43374   3.43827
 Alpha virt. eigenvalues --    3.44640   3.45141   3.45700   3.46967   3.47225
 Alpha virt. eigenvalues --    3.48198   3.49563   3.50166   3.51011   3.52352
 Alpha virt. eigenvalues --    3.53189   3.54344   3.54604   3.56040   3.57803
 Alpha virt. eigenvalues --    3.59063   3.59460   3.60050   3.61420   3.61933
 Alpha virt. eigenvalues --    3.63634   3.64073   3.64693   3.65699   3.66641
 Alpha virt. eigenvalues --    3.68134   3.69005   3.69921   3.70804   3.72614
 Alpha virt. eigenvalues --    3.73279   3.74022   3.74236   3.75691   3.77484
 Alpha virt. eigenvalues --    3.78055   3.78843   3.79115   3.80423   3.81334
 Alpha virt. eigenvalues --    3.82344   3.82916   3.83649   3.84728   3.85289
 Alpha virt. eigenvalues --    3.85397   3.86931   3.88420   3.89987   3.90558
 Alpha virt. eigenvalues --    3.91890   3.92266   3.93010   3.94037   3.94601
 Alpha virt. eigenvalues --    3.96008   3.96985   3.97908   3.98922   4.00097
 Alpha virt. eigenvalues --    4.00447   4.01510   4.02887   4.04570   4.05701
 Alpha virt. eigenvalues --    4.06657   4.07471   4.07603   4.08126   4.10013
 Alpha virt. eigenvalues --    4.11696   4.12700   4.13148   4.13521   4.13960
 Alpha virt. eigenvalues --    4.14160   4.16701   4.17169   4.17869   4.19094
 Alpha virt. eigenvalues --    4.19544   4.20524   4.21551   4.22742   4.23545
 Alpha virt. eigenvalues --    4.25250   4.25525   4.27634   4.28073   4.28338
 Alpha virt. eigenvalues --    4.28711   4.29776   4.31632   4.32116   4.32666
 Alpha virt. eigenvalues --    4.33674   4.34583   4.34864   4.38372   4.38903
 Alpha virt. eigenvalues --    4.41023   4.42966   4.43427   4.43723   4.44453
 Alpha virt. eigenvalues --    4.45030   4.47931   4.48003   4.49888   4.53506
 Alpha virt. eigenvalues --    4.55072   4.55751   4.57257   4.59298   4.61099
 Alpha virt. eigenvalues --    4.64160   4.65741   4.67802   4.68467   4.69385
 Alpha virt. eigenvalues --    4.72098   4.72370   4.74137   4.74749   4.76260
 Alpha virt. eigenvalues --    4.77372   4.79058   4.80518   4.81427   4.83015
 Alpha virt. eigenvalues --    4.84315   4.84861   4.85757   4.87682   4.88257
 Alpha virt. eigenvalues --    4.88950   4.91413   4.93714   4.95792   4.96133
 Alpha virt. eigenvalues --    4.96715   4.97807   4.99911   5.00055   5.00950
 Alpha virt. eigenvalues --    5.02528   5.04146   5.06079   5.08140   5.08751
 Alpha virt. eigenvalues --    5.09063   5.10318   5.11186   5.12596   5.13684
 Alpha virt. eigenvalues --    5.14769   5.15262   5.16067   5.17583   5.17903
 Alpha virt. eigenvalues --    5.18999   5.19614   5.20088   5.21114   5.21558
 Alpha virt. eigenvalues --    5.22060   5.22760   5.23751   5.24975   5.26001
 Alpha virt. eigenvalues --    5.26906   5.27304   5.28967   5.29447   5.31830
 Alpha virt. eigenvalues --    5.32971   5.33862   5.34852   5.36126   5.37981
 Alpha virt. eigenvalues --    5.38390   5.39468   5.40385   5.41838   5.42352
 Alpha virt. eigenvalues --    5.45715   5.48337   5.50438   5.54208   5.55399
 Alpha virt. eigenvalues --    5.60710   5.62043   5.64224   5.67052   5.67937
 Alpha virt. eigenvalues --    5.70242   5.73414   5.74395   5.74997   5.77281
 Alpha virt. eigenvalues --    5.78178   5.78989   5.81299   5.82410   5.83966
 Alpha virt. eigenvalues --    5.86127   5.86918   5.87867   5.89688   5.91917
 Alpha virt. eigenvalues --    5.95591   5.96501   6.01663   6.02848   6.10948
 Alpha virt. eigenvalues --    6.11923   6.13119   6.19937   6.24260   6.47379
 Alpha virt. eigenvalues --    6.51414   6.53588   6.55232   6.58762   6.60670
 Alpha virt. eigenvalues --    6.63219   6.65577   6.87975   6.95188   7.09034
 Alpha virt. eigenvalues --    7.12343   7.14873   7.17482   8.99792   9.42211
 Alpha virt. eigenvalues --   11.65991  11.80183  11.91981  12.35264  12.65731
 Alpha virt. eigenvalues --   12.99018  13.31704  13.53631  13.73586  13.97282
 Alpha virt. eigenvalues --   14.22751
          Condensed to atoms (all electrons):
              1          2          3          4          5          6
     1  C    4.761343   0.183800  -0.053799  -0.000383  -0.000086  -0.000145
     2  C    0.183800   5.275844   0.455295   0.006857  -0.000463   0.000380
     3  H   -0.053799   0.455295   0.462696  -0.000124   0.000028   0.000014
     4  C   -0.000383   0.006857  -0.000124   5.084948   0.408011   0.402781
     5  H   -0.000086  -0.000463   0.000028   0.408011   0.540737  -0.018237
     6  H   -0.000145   0.000380   0.000014   0.402781  -0.018237   0.558768
     7  H    0.000031   0.000199  -0.000030   0.405866  -0.029237  -0.032521
     8  O    0.624057  -0.084896   0.004319   0.000684   0.000023   0.000002
     9  N   -0.060097   0.253218  -0.029965  -0.000092   0.000073   0.000014
    10  H    0.012471  -0.029801  -0.008681  -0.000244  -0.000001   0.000004
    11  N    0.367222  -0.087703   0.008552   0.000021  -0.000001  -0.000014
    12  H   -0.007169   0.002877  -0.000336  -0.000130   0.000001   0.000026
    13  C   -0.054098   0.006443  -0.000724   0.000000   0.000000  -0.000001
    14  H   -0.001974  -0.000092  -0.000154   0.000000   0.000000   0.000000
    15  H    0.005753  -0.000218  -0.000173   0.000000   0.000000   0.000000
    16  H   -0.008595   0.002843   0.000258   0.000004   0.000000  -0.000001
    17  C   -0.003059  -0.065253  -0.013165   0.000099  -0.000003  -0.000002
    18  C   -0.002935   0.005042   0.002446   0.000002   0.000000   0.000000
    19  H    0.000273  -0.000372  -0.000276  -0.000001   0.000000   0.000000
    20  H   -0.000113  -0.000074   0.000147   0.000000   0.000000   0.000000
    21  H    0.000193  -0.000264  -0.000102   0.000000   0.000000   0.000000
    22  O    0.007318   0.024134   0.005669   0.000002   0.000000   0.000000
    23  C   -0.021975  -0.041531   0.009491   0.290495  -0.038434  -0.037565
    24  H    0.014046  -0.010046  -0.000519  -0.031536  -0.004495  -0.004685
    25  C    0.008943  -0.004959  -0.002482  -0.080571  -0.004570   0.009350
    26  H    0.000900  -0.005691  -0.000036  -0.007928  -0.000536  -0.000059
    27  H   -0.002466  -0.003442   0.000749   0.006679  -0.000060  -0.000345
    28  H   -0.000812   0.000079   0.000136  -0.008007   0.005330  -0.000050
    29  C   -0.025933   0.264591  -0.035213  -0.066350   0.009094  -0.005269
    30  H    0.008939  -0.032784  -0.008283  -0.004432  -0.000082  -0.000478
    31  H   -0.007353  -0.034992  -0.001748  -0.003648  -0.000242   0.004340
              7          8          9         10         11         12
     1  C    0.000031   0.624057  -0.060097   0.012471   0.367222  -0.007169
     2  C    0.000199  -0.084896   0.253218  -0.029801  -0.087703   0.002877
     3  H   -0.000030   0.004319  -0.029965  -0.008681   0.008552  -0.000336
     4  C    0.405866   0.000684  -0.000092  -0.000244   0.000021  -0.000130
     5  H   -0.029237   0.000023   0.000073  -0.000001  -0.000001   0.000001
     6  H   -0.032521   0.000002   0.000014   0.000004  -0.000014   0.000026
     7  H    0.562456  -0.000026  -0.000084  -0.000056  -0.000001   0.000004
     8  O   -0.000026   7.898332   0.005754  -0.000519  -0.098755  -0.000198
     9  N   -0.000084   0.005754   6.662324   0.363856   0.003623  -0.000184
    10  H   -0.000056  -0.000519   0.363856   0.551174  -0.000232   0.000026
    11  N   -0.000001  -0.098755   0.003623  -0.000232   6.493394   0.362864
    12  H    0.000004  -0.000198  -0.000184   0.000026   0.362864   0.574003
    13  C    0.000000  -0.011268  -0.000368   0.000051   0.276954  -0.027031
    14  H    0.000000  -0.001867   0.000042  -0.000009  -0.029046   0.006461
    15  H    0.000000   0.001114   0.000005   0.000000  -0.024387  -0.004532
    16  H    0.000000   0.018693   0.000013   0.000002  -0.061103  -0.009396
    17  C   -0.000004   0.009202   0.272093   0.002830   0.002576  -0.000079
    18  C    0.000000  -0.000090  -0.054904  -0.005858  -0.000017   0.000001
    19  H    0.000001   0.000020   0.006367   0.002112   0.000005   0.000000
    20  H    0.000000   0.000025   0.004539  -0.000889   0.000000   0.000000
    21  H    0.000000   0.000101  -0.000273   0.000441   0.000003   0.000000
    22  O    0.000000  -0.027941  -0.104538   0.003054  -0.005967   0.000202
    23  C   -0.038362   0.003471  -0.000231  -0.004055  -0.000547   0.000438
    24  H    0.006242   0.004316   0.000836   0.000342  -0.001116   0.000154
    25  C   -0.008133  -0.005935  -0.101462   0.001895   0.000062   0.000024
    26  H    0.003930   0.000228  -0.001275   0.000417   0.000007   0.000001
    27  H   -0.000016   0.014693   0.014800  -0.010121   0.000672  -0.000060
    28  H   -0.000209  -0.000019   0.004519   0.000117  -0.000001   0.000004
    29  C   -0.009500  -0.004312  -0.032549  -0.000838   0.000081  -0.000858
    30  H    0.003921  -0.000631  -0.006225   0.004356  -0.000473   0.000177
    31  H   -0.000236   0.000923   0.005086  -0.000041   0.002705   0.000137
             13         14         15         16         17         18
     1  C   -0.054098  -0.001974   0.005753  -0.008595  -0.003059  -0.002935
     2  C    0.006443  -0.000092  -0.000218   0.002843  -0.065253   0.005042
     3  H   -0.000724  -0.000154  -0.000173   0.000258  -0.013165   0.002446
     4  C    0.000000   0.000000   0.000000   0.000004   0.000099   0.000002
     5  H    0.000000   0.000000   0.000000   0.000000  -0.000003   0.000000
     6  H   -0.000001   0.000000   0.000000  -0.000001  -0.000002   0.000000
     7  H    0.000000   0.000000   0.000000   0.000000  -0.000004   0.000000
     8  O   -0.011268  -0.001867   0.001114   0.018693   0.009202  -0.000090
     9  N   -0.000368   0.000042   0.000005   0.000013   0.272093  -0.054904
    10  H    0.000051  -0.000009   0.000000   0.000002   0.002830  -0.005858
    11  N    0.276954  -0.029046  -0.024387  -0.061103   0.002576  -0.000017
    12  H   -0.027031   0.006461  -0.004532  -0.009396  -0.000079   0.000001
    13  C    4.826436   0.400999   0.399390   0.396653  -0.000124  -0.000039
    14  H    0.400999   0.555712  -0.020744  -0.044114  -0.000235   0.000052
    15  H    0.399390  -0.020744   0.587960  -0.036996  -0.000004   0.000000
    16  H    0.396653  -0.044114  -0.036996   0.627982  -0.000051   0.000003
    17  C   -0.000124  -0.000235  -0.000004  -0.000051   4.612287   0.281267
    18  C   -0.000039   0.000052   0.000000   0.000003   0.281267   4.935601
    19  H    0.000002  -0.000002   0.000000   0.000000  -0.042804   0.385146
    20  H   -0.000004   0.000022   0.000000  -0.000001  -0.029084   0.396051
    21  H    0.000002  -0.000001   0.000000  -0.000001  -0.022069   0.384562
    22  O   -0.005352   0.006228   0.000036   0.000194   0.654796  -0.058189
    23  C   -0.000171  -0.000014  -0.000007   0.000103   0.000969   0.000084
    24  H    0.000135   0.000016   0.000006   0.000121   0.000067   0.000022
    25  C    0.000027   0.000000   0.000000  -0.000015   0.004985  -0.001405
    26  H    0.000001   0.000000   0.000000   0.000000  -0.000190   0.000127
    27  H   -0.000044   0.000002   0.000000  -0.000048  -0.003798  -0.000365
    28  H   -0.000002   0.000000   0.000000  -0.000001  -0.000173   0.000054
    29  C   -0.000018  -0.000027   0.000043  -0.000239   0.006793   0.000021
    30  H    0.000026   0.000006   0.000001  -0.000004  -0.000364  -0.000112
    31  H   -0.000109  -0.000040  -0.000007   0.000139  -0.000193   0.000027
             19         20         21         22         23         24
     1  C    0.000273  -0.000113   0.000193   0.007318  -0.021975   0.014046
     2  C   -0.000372  -0.000074  -0.000264   0.024134  -0.041531  -0.010046
     3  H   -0.000276   0.000147  -0.000102   0.005669   0.009491  -0.000519
     4  C   -0.000001   0.000000   0.000000   0.000002   0.290495  -0.031536
     5  H    0.000000   0.000000   0.000000   0.000000  -0.038434  -0.004495
     6  H    0.000000   0.000000   0.000000   0.000000  -0.037565  -0.004685
     7  H    0.000001   0.000000   0.000000   0.000000  -0.038362   0.006242
     8  O    0.000020   0.000025   0.000101  -0.027941   0.003471   0.004316
     9  N    0.006367   0.004539  -0.000273  -0.104538  -0.000231   0.000836
    10  H    0.002112  -0.000889   0.000441   0.003054  -0.004055   0.000342
    11  N    0.000005   0.000000   0.000003  -0.005967  -0.000547  -0.001116
    12  H    0.000000   0.000000   0.000000   0.000202   0.000438   0.000154
    13  C    0.000002  -0.000004   0.000002  -0.005352  -0.000171   0.000135
    14  H   -0.000002   0.000022  -0.000001   0.006228  -0.000014   0.000016
    15  H    0.000000   0.000000   0.000000   0.000036  -0.000007   0.000006
    16  H    0.000000  -0.000001  -0.000001   0.000194   0.000103   0.000121
    17  C   -0.042804  -0.029084  -0.022069   0.654796   0.000969   0.000067
    18  C    0.385146   0.396051   0.384562  -0.058189   0.000084   0.000022
    19  H    0.611068  -0.028222  -0.028348   0.003070  -0.000014  -0.000004
    20  H   -0.028222   0.552950  -0.018515   0.005210   0.000003  -0.000001
    21  H   -0.028348  -0.018515   0.564644   0.000047  -0.000006  -0.000003
    22  O    0.003070   0.005210   0.000047   7.860804  -0.000087   0.000254
    23  C   -0.000014   0.000003  -0.000006  -0.000087   5.319836   0.410333
    24  H   -0.000004  -0.000001  -0.000003   0.000254   0.410333   0.471568
    25  C    0.000289  -0.000056   0.000301   0.000376   0.249425  -0.024416
    26  H   -0.000048   0.000001  -0.000017   0.000013  -0.060755   0.006558
    27  H    0.000102   0.000106   0.000399  -0.002140  -0.011070  -0.006010
    28  H   -0.000012   0.000001  -0.000016  -0.000001  -0.038502  -0.004268
    29  C   -0.000135   0.000013   0.000004   0.001726   0.231651  -0.028106
    30  H    0.000009  -0.000001   0.000003  -0.000047  -0.041447   0.005166
    31  H   -0.000003  -0.000001  -0.000001   0.000080  -0.048141  -0.001664
             25         26         27         28         29         30
     1  C    0.008943   0.000900  -0.002466  -0.000812  -0.025933   0.008939
     2  C   -0.004959  -0.005691  -0.003442   0.000079   0.264591  -0.032784
     3  H   -0.002482  -0.000036   0.000749   0.000136  -0.035213  -0.008283
     4  C   -0.080571  -0.007928   0.006679  -0.008007  -0.066350  -0.004432
     5  H   -0.004570  -0.000536  -0.000060   0.005330   0.009094  -0.000082
     6  H    0.009350  -0.000059  -0.000345  -0.000050  -0.005269  -0.000478
     7  H   -0.008133   0.003930  -0.000016  -0.000209  -0.009500   0.003921
     8  O   -0.005935   0.000228   0.014693  -0.000019  -0.004312  -0.000631
     9  N   -0.101462  -0.001275   0.014800   0.004519  -0.032549  -0.006225
    10  H    0.001895   0.000417  -0.010121   0.000117  -0.000838   0.004356
    11  N    0.000062   0.000007   0.000672  -0.000001   0.000081  -0.000473
    12  H    0.000024   0.000001  -0.000060   0.000004  -0.000858   0.000177
    13  C    0.000027   0.000001  -0.000044  -0.000002  -0.000018   0.000026
    14  H    0.000000   0.000000   0.000002   0.000000  -0.000027   0.000006
    15  H    0.000000   0.000000   0.000000   0.000000   0.000043   0.000001
    16  H   -0.000015   0.000000  -0.000048  -0.000001  -0.000239  -0.000004
    17  C    0.004985  -0.000190  -0.003798  -0.000173   0.006793  -0.000364
    18  C   -0.001405   0.000127  -0.000365   0.000054   0.000021  -0.000112
    19  H    0.000289  -0.000048   0.000102  -0.000012  -0.000135   0.000009
    20  H   -0.000056   0.000001   0.000106   0.000001   0.000013  -0.000001
    21  H    0.000301  -0.000017   0.000399  -0.000016   0.000004   0.000003
    22  O    0.000376   0.000013  -0.002140  -0.000001   0.001726  -0.000047
    23  C    0.249425  -0.060755  -0.011070  -0.038502   0.231651  -0.041447
    24  H   -0.024416   0.006558  -0.006010  -0.004268  -0.028106   0.005166
    25  C    5.307632   0.412886   0.387409   0.401054  -0.058716  -0.001952
    26  H    0.412886   0.542778  -0.028149  -0.021276   0.003396   0.002338
    27  H    0.387409  -0.028149   0.465774  -0.009219  -0.009662  -0.000011
    28  H    0.401054  -0.021276  -0.009219   0.527731   0.008395  -0.000166
    29  C   -0.058716   0.003396  -0.009662   0.008395   5.347341   0.420107
    30  H   -0.001952   0.002338  -0.000011  -0.000166   0.420107   0.453220
    31  H    0.007467   0.000292  -0.000642  -0.000327   0.422684  -0.007464
             31
     1  C   -0.007353
     2  C   -0.034992
     3  H   -0.001748
     4  C   -0.003648
     5  H   -0.000242
     6  H    0.004340
     7  H   -0.000236
     8  O    0.000923
     9  N    0.005086
    10  H   -0.000041
    11  N    0.002705
    12  H    0.000137
    13  C   -0.000109
    14  H   -0.000040
    15  H   -0.000007
    16  H    0.000139
    17  C   -0.000193
    18  C    0.000027
    19  H   -0.000003
    20  H   -0.000001
    21  H   -0.000001
    22  O    0.000080
    23  C   -0.048141
    24  H   -0.001664
    25  C    0.007467
    26  H    0.000292
    27  H   -0.000642
    28  H   -0.000327
    29  C    0.422684
    30  H   -0.007464
    31  H    0.463644
 Mulliken atomic charges:
              1
     1  C    0.255702
     2  C   -0.079023
     3  H    0.206009
     4  C   -0.403003
     5  H    0.133149
     6  H    0.123692
     7  H    0.135766
     8  O   -0.349501
     9  N   -0.204914
    10  H    0.118199
    11  N   -0.209378
    12  H    0.102572
    13  C   -0.207764
    14  H    0.128779
    15  H    0.092760
    16  H    0.113556
    17  C    0.332689
    18  C   -0.266596
    19  H    0.091779
    20  H    0.117897
    21  H    0.118916
    22  O   -0.368953
    23  C   -0.133384
    24  H    0.196688
    25  C   -0.497455
    26  H    0.152091
    27  H    0.196284
[...]
 (Enter /home/ztw1e12/g09/l401.exe)
 Harris functional with IExCor= 1009 diagonalized for initial guess.
 ExpMin= 1.03D-01 ExpMax= 1.38D+05 ExpMxC= 1.38D+05 IAcc=4 IRadAn=    199590 AccDes= 0.00D+00
 HarFok:  IExCor= 1009 AccDes= 0.00D+00 IRadAn=    199590 IDoV= 1
 ScaDFX=  1.000000  1.000000  1.000000  1.000000
 FoFCou: FMM=F IPFlag=           0 FMFlag=      100000 FMFlg1=           0
         NFxFlg=           0 DoJE=T BraDBF=F KetDBF=T FulRan=T
         Omega=  0.000000  0.000000  1.000000  0.000000  0.000000 ICntrl=     500 IOpCl=  0
         NMat0=    1 NMatS0=    1 NMatT0=    0 NMatD0=    1 NMtDS0=    0 NMtDT0=    0
         I1Cent=           4 NGrid=           0.
 Petite list used in FoFCou.
 Harris En= -613.646505241178    
 Initial guess orbital symmetries:
       Occupied  (A) (A) (A) (A) (A) (A) (A) (A) (A) (A) (A) (A)
                 (A) (A) (A) (A) (A) (A) (A) (A) (A) (A) (A) (A)
                 (A) (A) (A) (A) (A) (A) (A) (A) (A) (A) (A) (A)
                 (A) (A) (A) (A) (A) (A) (A) (A) (A) (A) (A) (A)
                 (A) (A) (A)
       Virtual   (A) (A) (A) (A) (A) (A) (A) (A) (A) (A) (A) (A)
                 (A) (A) (A) (A) (A) (A) (A) (A) (A) (A) (A) (A)
                 (A) (A) (A) (A) (A) (A) (A) (A) (A) (A) (A) (A)
                 (A) (A) (A) (A) (A) (A) (A) (A) (A) (A) (A) (A)
                 (A) (A) (A) (A) (A) (A) (A) (A) (A) (A) (A) (A)
                 (A) (A) (A) (A) (A) (A) (A) (A) (A) (A) (A) (A)
                 (A) (A) (A) (A) (A) (A) (A) (A) (A) (A) (A) (A)
                 (A) (A) (A) (A) (A) (A) (A) (A) (A) (A) (A) (A)
                 (A) (A) (A) (A) (A) (A) (A) (A) (A) (A) (A) (A)
                 (A) (A) (A) (A) (A) (A) (A) (A) (A) (A) (A) (A)
                 (A) (A) (A) (A) (A) (A) (A) (A) (A) (A) (A) (A)
                 (A) (A) (A) (A) (A) (A) (A) (A) (A) (A) (A) (A)
                 (A) (A) (A) (A) (A) (A) (A) (A) (A) (A) (A) (A)
                 (A) (A) (A) (A) (A) (A) (A) (A) (A) (A) (A) (A)
                 (A) (A) (A) (A) (A) (A) (A) (A) (A) (A) (A) (A)
                 (A) (A) (A) (A) (A) (A) (A) (A) (A) (A) (A) (A)
                 (A) (A) (A) (A) (A) (A) (A) (A) (A) (A) (A) (A)
                 (A) (A) (A) (A) (A) (A) (A) (A) (A) (A) (A) (A)
                 (A) (A) (A) (A) (A) (A) (A) (A) (A) (A) (A) (A)
                 (A) (A) (A) (A) (A) (A) (A) (A) (A) (A) (A) (A)
                 (A) (A) (A) (A) (A) (A) (A) (A) (A) (A) (A) (A)
                 (A) (A) (A) (A) (A) (A) (A) (A) (A) (A) (A) (A)
                 (A) (A) (A) (A) (A) (A) (A) (A) (A) (A) (A) (A)
                 (A) (A) (A) (A) (A) (A) (A) (A) (A) (A) (A) (A)
                 (A) (A) (A) (A) (A) (A) (A) (A) (A) (A) (A) (A)
                 (A) (A) (A) (A) (A) (A) (A) (A) (A) (A) (A) (A)
                 (A) (A) (A) (A) (A) (A) (A) (A) (A) (A) (A) (A)
                 (A) (A) (A) (A) (A) (A) (A) (A) (A) (A) (A) (A)
                 (A) (A) (A) (A) (A) (A) (A) (A) (A) (A) (A) (A)
                 (A) (A) (A) (A) (A) (A) (A) (A) (A) (A) (A) (A)
                 (A) (A) (A) (A) (A) (A) (A) (A) (A) (A) (A) (A)
                 (A) (A) (A) (A) (A) (A) (A) (A) (A) (A) (A) (A)
                 (A) (A) (A) (A) (A) (A) (A) (A) (A) (A) (A) (A)
                 (A) (A) (A) (A) (A) (A) (A) (A) (A) (A) (A) (A)
                 (A) (A) (A) (A) (A) (A) (A) (A) (A) (A) (A) (A)
                 (A) (A) (A) (A) (A) (A) (A) (A) (A) (A) (A) (A)
                 (A) (A) (A) (A) (A) (A) (A) (A) (A) (A) (A) (A)
                 (A) (A) (A) (A) (A) (A) (A) (A) (A) (A) (A) (A)
                 (A) (A) (A) (A) (A) (A) (A) (A) (A) (A) (A) (A)
                 (A) (A) (A) (A) (A) (A) (A) (A) (A) (A) (A) (A)
                 (A) (A) (A) (A) (A) (A) (A) (A) (A) (A) (A) (A)
                 (A) (A) (A) (A) (A) (A) (A) (A) (A) (A) (A) (A)
                 (A) (A) (A) (A) (A) (A) (A) (A) (A) (A) (A) (A)
                 (A) (A) (A) (A) (A) (A) (A) (A) (A) (A) (A) (A)
                 (A) (A) (A) (A) (A) (A) (A) (A) (A) (A) (A) (A)
                 (A) (A) (A) (A) (A) (A) (A) (A) (A) (A) (A) (A)
                 (A) (A) (A) (A) (A) (A) (A) (A) (A) (A) (A) (A)
                 (A) (A) (A) (A) (A) (A) (A) (A) (A) (A) (A) (A)
                 (A) (A) (A) (A) (A) (A) (A) (A) (A) (A) (A) (A)
                 (A) (A) (A) (A) (A) (A) (A) (A) (A) (A) (A) (A)
                 (A) (A) (A) (A) (A) (A) (A) (A) (A) (A) (A) (A)
                 (A) (A) (A) (A) (A) (A) (A) (A) (A) (A) (A) (A)
                 (A) (A) (A) (A) (A) (A) (A) (A) (A) (A) (A) (A)
                 (A) (A) (A) (A) (A) (A) (A) (A) (A) (A) (A) (A)
                 (A) (A) (A) (A) (A) (A) (A) (A) (A) (A) (A) (A)
                 (A) (A) (A) (A) (A) (A) (A) (A) (A) (A) (A) (A)
                 (A) (A) (A) (A) (A) (A) (A) (A) (A) (A) (A) (A)
                 (A) (A) (A) (A) (A) (A) (A) (A) (A) (A) (A) (A)
                 (A) (A) (A) (A) (A) (A) (A) (A) (A) (A) (A) (A)
                 (A) (A) (A) (A) (A) (A) (A) (A) (A) (A) (A) (A)
                 (A) (A) (A) (A) (A) (A) (A) (A) (A) (A) (A) (A)
                 (A) (A) (A) (A) (A) (A) (A) (A) (A) (A) (A) (A)
                 (A) (A) (A) (A) (A) (A) (A) (A) (A) (A) (A) (A)
                 (A) (A) (A) (A) (A) (A) (A) (A) (A) (A) (A) (A)
                 (A) (A) (A) (A) (A) (A) (A) (A) (A) (A) (A) (A)
                 (A) (A) (A) (A) (A) (A) (A) (A) (A) (A) (A) (A)
                 (A) (A) (A) (A) (A) (A) (A) (A) (A) (A) (A) (A)
                 (A) (A) (A) (A) (A) (A) (A) (A) (A) (A) (A) (A)
                 (A) (A) (A) (A) (A) (A) (A) (A) (A) (A) (A) (A)
                 (A) (A) (A) (A) (A) (A) (A) (A) (A) (A) (A) (A)
                 (A) (A) (A) (A) (A) (A) (A) (A) (A) (A) (A) (A)
                 (A) (A) (A) (A) (A) (A) (A) (A) (A) (A) (A) (A)
                 (A) (A) (A) (A) (A) (A) (A) (A) (A) (A) (A) (A)
                 (A) (A) (A) (A) (A)
 The electronic state of the initial guess is 1-A.
 Leave Link  401 at Sat Feb 23 12:12:10 2013, MaxMem= 2147483648 cpu:     448.6
 (Enter /home/ztw1e12/g09/l502.exe)
 Closed shell SCF:
 Requested convergence on RMS density matrix=1.00D-08 within 128 cycles.
 Requested convergence on MAX density matrix=1.00D-06.
 Requested convergence on             energy=1.00D-06.
 No special actions if energy rises.
 Using DIIS extrapolation, IDIIS=  1040.
 Integral symmetry usage will be decided dynamically.
      3115437 words used for storage of precomputed grid.
 IEnd=     6911886 IEndB=     6911886 NGot=  2147483648 MDV=  2141841683
 LenX=  2141841683 LenY=  2140588403
 Fock matrices will be formed incrementally for  20 cycles.
 Integral accuracy reduced to 1.0D-05 until final iterations.

 Cycle   1  Pass 0  IDiag  1:
 FoFCou: FMM=F IPFlag=           0 FMFlag=      100000 FMFlg1=           0
         NFxFlg=           0 DoJE=F BraDBF=F KetDBF=F FulRan=T
         Omega=  0.000000  0.000000  1.000000  0.000000  0.000000 ICntrl=       0 IOpCl=  0
         NMat0=    1 NMatS0=    1 NMatT0=    0 NMatD0=    1 NMtDS0=    0 NMtDT0=    0
         I1Cent=           0 NGrid=           0.
 Symmetry not used in FoFCou.
 E= -613.196683920965    
 DIIS: error= 1.49D-01 at cycle   1 NSaved=   1.
 NSaved= 1 IEnMin= 1 EnMin= -613.196683920965     IErMin= 1 ErrMin= 1.49D-01
 ErrMax= 1.49D-01 EMaxC= 1.00D-01 BMatC= 1.45D+01 BMatP= 1.45D+01
 IDIUse=3 WtCom= 0.00D+00 WtEn= 1.00D+00
 Coeff-Com:  0.100D+01
 Coeff-En:   0.100D+01
 Coeff:      0.100D+01
 Gap=     0.270 Goal=   None    Shift=    0.000
 GapD=    0.270 DampG=1.000 DampE=0.250 DampFc=0.2500 IDamp=-1.
 Damping current iteration by 2.50D-01
 RMSDP=1.86D-03 MaxDP=2.57D-01              OVMax= 2.25D-01

 Cycle   2  Pass 0  IDiag  1:
 RMSU=  3.28D-04    CP:  1.01D+00
 E= -613.353172637112     Delta-E=       -0.156488716147 Rises=F Damp=T
 DIIS: error= 1.12D-01 at cycle   2 NSaved=   2.
 NSaved= 2 IEnMin= 2 EnMin= -613.353172637112     IErMin= 2 ErrMin= 1.12D-01
 ErrMax= 1.12D-01 EMaxC= 1.00D-01 BMatC= 8.55D+00 BMatP= 1.45D+01
 IDIUse=3 WtCom= 0.00D+00 WtEn= 1.00D+00
 Coeff-Com: -0.291D+01 0.391D+01
 Coeff-En:   0.000D+00 0.100D+01
 Coeff:      0.000D+00 0.100D+01
 Gap=     0.231 Goal=   None    Shift=    0.000
 RMSDP=5.94D-04 MaxDP=5.08D-02 DE=-1.56D-01 OVMax= 9.53D-02

 Cycle   3  Pass 0  IDiag  1:
 RMSU=  2.70D-04    CP:  1.02D+00  1.98D+00
 E= -613.532305739320     Delta-E=       -0.179133102208 Rises=F Damp=F
 DIIS: error= 1.47D-02 at cycle   3 NSaved=   3.
 NSaved= 3 IEnMin= 3 EnMin= -613.532305739320     IErMin= 3 ErrMin= 1.47D-02
 ErrMax= 1.47D-02 EMaxC= 1.00D-01 BMatC= 2.71D-01 BMatP= 8.55D+00
 IDIUse=3 WtCom= 8.53D-01 WtEn= 1.47D-01
 EnCoef did   100 forward-backward iterations
 Coeff-Com:  0.161D+01-0.219D+01 0.158D+01
 Coeff-En:   0.147D+00 0.153D-02 0.852D+00
 Coeff:      0.139D+01-0.187D+01 0.147D+01
 Gap=     0.262 Goal=   None    Shift=    0.000
 RMSDP=3.95D-04 MaxDP=3.71D-02 DE=-1.79D-01 OVMax= 6.14D-02

 Cycle   4  Pass 0  IDiag  1:
 RMSU=  1.57D-04    CP:  1.02D+00  1.33D+00  6.63D-01
 E= -613.566781501515     Delta-E=       -0.034475762195 Rises=F Damp=F
 DIIS: error= 8.12D-03 at cycle   4 NSaved=   4.
 NSaved= 4 IEnMin= 4 EnMin= -613.566781501515     IErMin= 4 ErrMin= 8.12D-03
 ErrMax= 8.12D-03 EMaxC= 1.00D-01 BMatC= 8.69D-02 BMatP= 2.71D-01
 IDIUse=3 WtCom= 9.19D-01 WtEn= 8.12D-02
 Coeff-Com:  0.895D+00-0.122D+01 0.748D+00 0.581D+00
 Coeff-En:   0.000D+00 0.000D+00 0.354D+00 0.646D+00
 Coeff:      0.822D+00-0.112D+01 0.716D+00 0.586D+00
 Gap=     0.292 Goal=   None    Shift=    0.000
 RMSDP=2.66D-04 MaxDP=2.30D-02 DE=-3.45D-02 OVMax= 8.19D-02

 Cycle   5  Pass 0  IDiag  1:
 RMSU=  7.32D-05    CP:  1.01D+00  1.26D+00  8.73D-01 -3.32D-02
 E= -613.616468830011     Delta-E=       -0.049687328495 Rises=F Damp=F
 DIIS: error= 4.27D-03 at cycle   5 NSaved=   5.
 NSaved= 5 IEnMin= 5 EnMin= -613.616468830011     IErMin= 5 ErrMin= 4.27D-03
 ErrMax= 4.27D-03 EMaxC= 1.00D-01 BMatC= 2.23D-02 BMatP= 8.69D-02
 IDIUse=3 WtCom= 9.57D-01 WtEn= 4.27D-02
 Coeff-Com:  0.168D+00-0.238D+00 0.142D+00 0.341D+00 0.588D+00
 Coeff-En:   0.000D+00 0.000D+00 0.000D+00 0.216D+00 0.784D+00
 Coeff:      0.160D+00-0.228D+00 0.136D+00 0.336D+00 0.596D+00
 Gap=     0.278 Goal=   None    Shift=    0.000
 RMSDP=1.70D-04 MaxDP=1.56D-02 DE=-4.97D-02 OVMax= 3.66D-02

 Cycle   6  Pass 0  IDiag  1:
 RMSU=  6.19D-05    CP:  1.02D+00  1.29D+00  9.96D-01  4.41D-01  1.47D-01
 E= -613.630989383590     Delta-E=       -0.014520553579 Rises=F Damp=F
 DIIS: error= 6.87D-04 at cycle   6 NSaved=   6.
 NSaved= 6 IEnMin= 6 EnMin= -613.630989383590     IErMin= 6 ErrMin= 6.87D-04
 ErrMax= 6.87D-04 EMaxC= 1.00D-01 BMatC= 7.96D-04 BMatP= 2.23D-02
 IDIUse=3 WtCom= 9.93D-01 WtEn= 6.87D-03
 Coeff-Com:  0.596D-01-0.824D-01 0.288D-01 0.639D-01 0.175D+00 0.755D+00
 Coeff-En:   0.000D+00 0.000D+00 0.000D+00 0.000D+00 0.000D+00 0.100D+01
 Coeff:      0.592D-01-0.819D-01 0.286D-01 0.634D-01 0.174D+00 0.757D+00
 Gap=     0.277 Goal=   None    Shift=    0.000
 RMSDP=3.24D-05 MaxDP=3.16D-03 DE=-1.45D-02 OVMax= 8.47D-03

 Cycle   7  Pass 0  IDiag  1:
 RMSU=  1.75D-05    CP:  1.02D+00  1.26D+00  1.00D+00  4.40D-01  2.48D-01
                    CP:  1.12D+00
 E= -613.631380286245     Delta-E=       -0.000390902655 Rises=F Damp=F
 DIIS: error= 3.81D-04 at cycle   7 NSaved=   7.
 NSaved= 7 IEnMin= 7 EnMin= -613.631380286245     IErMin= 7 ErrMin= 3.81D-04
 ErrMax= 3.81D-04 EMaxC= 1.00D-01 BMatC= 2.43D-04 BMatP= 7.96D-04
 IDIUse=3 WtCom= 9.96D-01 WtEn= 3.81D-03
 Coeff-Com:  0.345D-01-0.465D-01 0.135D-01 0.485D-02 0.350D-01 0.410D+00
 Coeff-Com:  0.549D+00
 Coeff-En:   0.000D+00 0.000D+00 0.000D+00 0.000D+00 0.000D+00 0.221D+00
 Coeff-En:   0.779D+00
 Coeff:      0.343D-01-0.463D-01 0.135D-01 0.483D-02 0.349D-01 0.409D+00
 Coeff:      0.549D+00
 Gap=     0.276 Goal=   None    Shift=    0.000
 RMSDP=1.15D-05 MaxDP=1.02D-03 DE=-3.91D-04 OVMax= 3.21D-03

 Cycle   8  Pass 0  IDiag  1:
 RMSU=  4.51D-06    CP:  1.02D+00  1.26D+00  1.01D+00  4.51D-01  2.22D-01
                    CP:  1.17D+00  7.25D-01
 E= -613.631561132482     Delta-E=       -0.000180846237 Rises=F Damp=F
 DIIS: error= 1.06D-04 at cycle   8 NSaved=   8.
 NSaved= 8 IEnMin= 8 EnMin= -613.631561132482     IErMin= 8 ErrMin= 1.06D-04
 ErrMax= 1.06D-04 EMaxC= 1.00D-01 BMatC= 1.58D-05 BMatP= 2.43D-04
 IDIUse=3 WtCom= 9.99D-01 WtEn= 1.06D-03
 Coeff-Com:  0.156D-01-0.209D-01 0.661D-02-0.533D-02-0.590D-03 0.146D+00
 Coeff-Com:  0.268D+00 0.590D+00
 Coeff-En:   0.000D+00 0.000D+00 0.000D+00 0.000D+00 0.000D+00 0.000D+00
 Coeff-En:   0.000D+00 0.100D+01
 Coeff:      0.155D-01-0.208D-01 0.660D-02-0.532D-02-0.589D-03 0.146D+00
 Coeff:      0.268D+00 0.591D+00
 Gap=     0.276 Goal=   None    Shift=    0.000
 RMSDP=5.40D-06 MaxDP=5.67D-04 DE=-1.81D-04 OVMax= 1.20D-03

 Initial convergence to 1.0D-05 achieved.  Increase integral accuracy.
 Cycle   9  Pass 1  IDiag  1:
 E= -613.631655296185     Delta-E=       -0.000094163704 Rises=F Damp=F
 DIIS: error= 6.36D-05 at cycle   1 NSaved=   1.
 NSaved= 1 IEnMin= 1 EnMin= -613.631655296185     IErMin= 1 ErrMin= 6.36D-05
 ErrMax= 6.36D-05 EMaxC= 1.00D-01 BMatC= 8.06D-06 BMatP= 8.06D-06
 IDIUse=1 WtCom= 1.00D+00 WtEn= 0.00D+00
 Coeff-Com:  0.100D+01
 Coeff:      0.100D+01
 Gap=     0.276 Goal=   None    Shift=    0.000
 RMSDP=5.40D-06 MaxDP=5.67D-04 DE=-9.42D-05 OVMax= 1.47D-03

 Cycle  10  Pass 1  IDiag  1:
 RMSU=  9.56D-06    CP:  1.00D+00
 E= -613.631646647061     Delta-E=        0.000008649125 Rises=F Damp=F
 DIIS: error= 1.34D-04 at cycle   2 NSaved=   2.
 NSaved= 2 IEnMin= 1 EnMin= -613.631655296185     IErMin= 1 ErrMin= 6.36D-05
 ErrMax= 1.34D-04 EMaxC= 1.00D-01 BMatC= 1.98D-05 BMatP= 8.06D-06
 IDIUse=3 WtCom= 4.64D-01 WtEn= 5.36D-01
 Coeff-Com:  0.624D+00 0.376D+00
 Coeff-En:   0.707D+00 0.293D+00
 Coeff:      0.669D+00 0.331D+00
 Gap=     0.276 Goal=   None    Shift=    0.000
 RMSDP=3.29D-06 MaxDP=3.99D-04 DE= 8.65D-06 OVMax= 9.78D-04

 Cycle  11  Pass 1  IDiag  1:
 RMSU=  2.18D-06    CP:  1.00D+00  9.17D-01
 E= -613.631660730371     Delta-E=       -0.000014083311 Rises=F Damp=F
 DIIS: error= 7.06D-06 at cycle   3 NSaved=   3.
 NSaved= 3 IEnMin= 3 EnMin= -613.631660730371     IErMin= 3 ErrMin= 7.06D-06
 ErrMax= 7.06D-06 EMaxC= 1.00D-01 BMatC= 8.00D-08 BMatP= 8.06D-06
 IDIUse=1 WtCom= 1.00D+00 WtEn= 0.00D+00
 Coeff-Com:  0.518D-01 0.448D-01 0.903D+00
 Coeff:      0.518D-01 0.448D-01 0.903D+00
 Gap=     0.276 Goal=   None    Shift=    0.000
 RMSDP=5.59D-07 MaxDP=5.13D-05 DE=-1.41D-05 OVMax= 7.18D-05

 Cycle  12  Pass 1  IDiag  1:
 RMSU=  3.45D-07    CP:  1.00D+00  9.35D-01  1.04D+00
 E= -613.631660734449     Delta-E=       -0.000000004077 Rises=F Damp=F
 DIIS: error= 8.69D-06 at cycle   4 NSaved=   4.
 NSaved= 4 IEnMin= 4 EnMin= -613.631660734449     IErMin= 3 ErrMin= 7.06D-06
 ErrMax= 8.69D-06 EMaxC= 1.00D-01 BMatC= 5.66D-08 BMatP= 8.00D-08
 IDIUse=1 WtCom= 1.00D+00 WtEn= 0.00D+00
 Coeff-Com:  0.261D-02 0.803D-02 0.461D+00 0.528D+00
 Coeff:      0.261D-02 0.803D-02 0.461D+00 0.528D+00
 Gap=     0.276 Goal=   None    Shift=    0.000
 RMSDP=2.04D-07 MaxDP=1.92D-05 DE=-4.08D-09 OVMax= 4.63D-05

 Cycle  13  Pass 1  IDiag  1:
 RMSU=  1.22D-07    CP:  1.00D+00  9.37D-01  1.03D+00  8.00D-01
 E= -613.631660778753     Delta-E=       -0.000000044304 Rises=F Damp=F
 DIIS: error= 1.59D-06 at cycle   5 NSaved=   5.
 NSaved= 5 IEnMin= 5 EnMin= -613.631660778753     IErMin= 5 ErrMin= 1.59D-06
 ErrMax= 1.59D-06 EMaxC= 1.00D-01 BMatC= 2.80D-09 BMatP= 5.66D-08
 IDIUse=1 WtCom= 1.00D+00 WtEn= 0.00D+00
 Coeff-Com: -0.368D-02-0.748D-03 0.110D+00 0.222D+00 0.672D+00
 Coeff:     -0.368D-02-0.748D-03 0.110D+00 0.222D+00 0.672D+00
 Gap=     0.276 Goal=   None    Shift=    0.000
 RMSDP=6.76D-08 MaxDP=5.10D-06 DE=-4.43D-08 OVMax= 1.55D-05

 Cycle  14  Pass 1  IDiag  1:
 RMSU=  2.90D-08    CP:  1.00D+00  9.38D-01  1.04D+00  8.93D-01  9.25D-01
 E= -613.631660780415     Delta-E=       -0.000000001662 Rises=F Damp=F
 DIIS: error= 7.64D-07 at cycle   6 NSaved=   6.
 NSaved= 6 IEnMin= 6 EnMin= -613.631660780415     IErMin= 6 ErrMin= 7.64D-07
 ErrMax= 7.64D-07 EMaxC= 1.00D-01 BMatC= 5.43D-10 BMatP= 2.80D-09
 IDIUse=1 WtCom= 1.00D+00 WtEn= 0.00D+00
 Coeff-Com: -0.221D-02-0.906D-03 0.314D-01 0.897D-01 0.381D+00 0.501D+00
 Coeff:     -0.221D-02-0.906D-03 0.314D-01 0.897D-01 0.381D+00 0.501D+00
 Gap=     0.276 Goal=   None    Shift=    0.000
 RMSDP=2.09D-08 MaxDP=2.25D-06 DE=-1.66D-09 OVMax= 7.70D-06

 Cycle  15  Pass 1  IDiag  1:
 RMSU=  1.26D-08    CP:  1.00D+00  9.39D-01  1.04D+00  8.97D-01  9.47D-01
                    CP:  7.68D-01
 E= -613.631660780791     Delta-E=       -0.000000000376 Rises=F Damp=F
 DIIS: error= 3.21D-07 at cycle   7 NSaved=   7.
 NSaved= 7 IEnMin= 7 EnMin= -613.631660780791     IErMin= 7 ErrMin= 3.21D-07
 ErrMax= 3.21D-07 EMaxC= 1.00D-01 BMatC= 8.25D-11 BMatP= 5.43D-10
 IDIUse=1 WtCom= 1.00D+00 WtEn= 0.00D+00
 Coeff-Com: -0.525D-03-0.357D-03-0.493D-02 0.402D-02 0.748D-01 0.299D+00
 Coeff-Com:  0.628D+00
 Coeff:     -0.525D-03-0.357D-03-0.493D-02 0.402D-02 0.748D-01 0.299D+00
 Coeff:      0.628D+00
 Gap=     0.276 Goal=   None    Shift=    0.000
 RMSDP=1.09D-08 MaxDP=1.09D-06 DE=-3.76D-10 OVMax= 1.74D-06

 Cycle  16  Pass 1  IDiag  1:
 RMSU=  3.47D-09    CP:  1.00D+00  9.39D-01  1.04D+00  9.09D-01  9.67D-01
                    CP:  9.04D-01  8.29D-01
 E= -613.631660780836     Delta-E=       -0.000000000045 Rises=F Damp=F
 DIIS: error= 7.30D-08 at cycle   8 NSaved=   8.
 NSaved= 8 IEnMin= 8 EnMin= -613.631660780836     IErMin= 8 ErrMin= 7.30D-08
 ErrMax= 7.30D-08 EMaxC= 1.00D-01 BMatC= 5.25D-12 BMatP= 8.25D-11
 IDIUse=1 WtCom= 1.00D+00 WtEn= 0.00D+00
 Coeff-Com: -0.630D-04-0.956D-04-0.485D-02-0.569D-02 0.157D-02 0.100D+00
 Coeff-Com:  0.297D+00 0.612D+00
 Coeff:     -0.630D-04-0.956D-04-0.485D-02-0.569D-02 0.157D-02 0.100D+00
 Coeff:      0.297D+00 0.612D+00
 Gap=     0.276 Goal=   None    Shift=    0.000
 RMSDP=2.64D-09 MaxDP=3.09D-07 DE=-4.48D-11 OVMax= 3.20D-07

 SCF Done:  E(RM06) =  -613.631660781     A.U. after   16 cycles
             Convg  =    0.2637D-08             -V/T =  2.0045
 KE= 6.108530964306D+02 PE=-3.185027553046D+03 EE= 1.083758111615D+03
 Leave Link  502 at Sat Feb 23 13:08:41 2013, MaxMem= 2147483648 cpu:   40680.8
 (Enter /home/ztw1e12/g09/l801.exe)
 Range of M.O.s used for correlation:     1   932
 NBasis=  1036 NAE=    51 NBE=    51 NFC=     0 NFV=     0
 NROrb=    932 NOA=    51 NOB=    51 NVA=   881 NVB=   881

 **** Warning!!: The largest alpha MO coefficient is  0.10915810D+02

 Leave Link  801 at Sat Feb 23 13:08:42 2013, MaxMem= 2147483648 cpu:       1.1
 (Enter /home/ztw1e12/g09/l1002.exe)
 Minotr:  Closed shell wavefunction.
          IDoAtm=1111111111111111111111111111111
          Direct CPHF calculation.
          Differentiating once with respect to Fermi-contact.
          Electric field/nuclear overlap derivatives assumed to be zero.
          Requested convergence is 1.0D-10 RMS, and 1.0D-09 maximum.
          Secondary convergence is 1.0D-12 RMS, and 1.0D-12 maximum.
          NewPWx=T KeepS1=F KeepF1=F KeepIn=T MapXYZ=F SortEE=F KeepMc=T.
          MDV=    2147483334 using IRadAn=  199590.
 Using stored XC quadrature information.
          Solving linear equations simultaneously, MaxMat=       0.
          There are    31 degrees of freedom in the 1st order CPHF.  IDoFFX=0.
     31 vectors produced by pass  0 Test12= 1.45D-17 3.23D-11 XBig12= 4.15D+01 2.49D+00.
 AX will form    31 AO Fock derivatives at one time.
 Integrals replicated using symmetry in FoFDir.
 MinBra= 0 MaxBra= 3 Meth= 1.
 IRaf=       0 NMat=  31 IRICut=       2 DoRegI=F DoRafI=T ISym2E= 2 JSym2E=2.
     31 vectors produced by pass  1 Test12= 1.45D-17 3.23D-11 XBig12= 3.49D-01 1.70D-01.
     31 vectors produced by pass  2 Test12= 1.45D-17 3.23D-11 XBig12= 2.01D-02 4.10D-02.
     31 vectors produced by pass  3 Test12= 1.45D-17 3.23D-11 XBig12= 3.99D-04 6.58D-03.
     31 vectors produced by pass  4 Test12= 1.45D-17 3.23D-11 XBig12= 7.28D-06 9.71D-04.
     31 vectors produced by pass  5 Test12= 1.45D-17 3.23D-11 XBig12= 1.70D-07 2.03D-04.
     31 vectors produced by pass  6 Test12= 1.45D-17 3.23D-11 XBig12= 3.50D-09 2.59D-05.
