 Entering Gaussian System, Link 0=g09
 Input=lysine.com
 Output=lysine.log
 Initial command:
 /system/software/linux-x86_64/gaussian/g09/D.01__pgi_12.10__atlas/l1.exe "/export/home/spin_dynamics/kuprov/zenawi/Gau-63480.inp" -scrdir="/export/home/spin_dynamics/kuprov/zenawi/"
 Entering Link 1 = /system/software/linux-x86_64/gaussian/g09/D.01__pgi_12.10__atlas/l1.exe PID=     63481.
  
 Copyright (c) 1988,1990,1992,1993,1995,1998,2003,2009,2013,
            Gaussian, Inc.  All Rights Reserved.
  
 This is part of the Gaussian(R) 09 program.  It is based on
 the Gaussian(R) 03 system (copyright 2003, Gaussian, Inc.),
 the Gaussian(R) 98 system (copyright 1998, Gaussian, Inc.),
 the Gaussian(R) 94 system (copyright 1995, Gaussian, Inc.),
 the Gaussian 92(TM) system (copyright 1992, Gaussian, Inc.),
 the Gaussian 90(TM) system (copyright 1990, Gaussian, Inc.),
 the Gaussian 88(TM) system (copyright 1988, Gaussian, Inc.),
 the Gaussian 86(TM) system (copyright 1986, Carnegie Mellon
 University), and the Gaussian 82(TM) system (copyright 1983,
 Carnegie Mellon University). Gaussian is a federally registered
 trademark of Gaussian, Inc.
  
 This software contains proprietary and confidential information,
 including trade secrets, belonging to Gaussian, Inc.
  
 This software is provided under written license and may be
 used, copied, transmitted, or stored only in accord with that
 written license.
  
 The following legend is applicable only to US Government
 contracts under FAR:
  
                    RESTRICTED RIGHTS LEGEND
  
 Use, reproduction and disclosure by the US Government is
 subject to restrictions as set forth in subparagraphs (a)
 and (c) of the Commercial Computer Software - Restricted
 Rights clause in FAR 52.227-19.
  
 Gaussian, Inc.
 340 Quinnipiac St., Bldg. 40, Wallingford CT 06492
  
  
 ---------------------------------------------------------------
 Warning -- This program may not be used in any manner that
 competes with the business of Gaussian, Inc. or will provide
 assistance to any competitor of Gaussian, Inc.  The licensee
 of this program is prohibited from giving any competitor of
 Gaussian, Inc. access to this program.  By using this program,
 the user acknowledges that Gaussian, Inc. is engaged in the
 business of creating and licensing software in the field of
 computational chemistry and represents and warrants to the
 licensee that it is not a competitor of Gaussian, Inc. and that
 it will not use this program in any manner prohibited above.
 ---------------------------------------------------------------
  

 Cite this work as:
 Gaussian 09, Revision D.01,
 M. J. Frisch, G. W. Trucks, H. B. Schlegel, G. E. Scuseria, 
 M. A. Robb, J. R. Cheeseman, G. Scalmani, V. Barone, B. Mennucci, 
 G. A. Petersson, H. Nakatsuji, M. Caricato, X. Li, H. P. Hratchian, 
 A. F. Izmaylov, J. Bloino, G. Zheng, J. L. Sonnenberg, M. Hada, 
 M. Ehara, K. Toyota, R. Fukuda, J. Hasegawa, M. Ishida, T. Nakajima, 
 Y. Honda, O. Kitao, H. Nakai, T. Vreven, J. A. Montgomery, Jr., 
 J. E. Peralta, F. Ogliaro, M. Bearpark, J. J. Heyd, E. Brothers, 
 K. N. Kudin, V. N. Staroverov, T. Keith, R. Kobayashi, J. Normand, 
 K. Raghavachari, A. Rendell, J. C. Burant, S. S. Iyengar, J. Tomasi, 
 M. Cossi, N. Rega, J. M. Millam, M. Klene, J. E. Knox, J. B. Cross, 
 V. Bakken, C. Adamo, J. Jaramillo, R. Gomperts, R. E. Stratmann, 
 O. Yazyev, A. J. Austin, R. Cammi, C. Pomelli, J. W. Ochterski, 
 R. L. Martin, K. Morokuma, V. G. Zakrzewski, G. A. Voth, 
 P. Salvador, J. J. Dannenberg, S. Dapprich, A. D. Daniels, 
 O. Farkas, J. B. Foresman, J. V. Ortiz, J. Cioslowski, 
 and D. J. Fox, Gaussian, Inc., Wallingford CT, 2013.
 
 ******************************************
 Gaussian 09:  EM64L-G09RevD.01 24-Apr-2013
                28-Sep-2013 
 ******************************************
 %Chk=lysine.chk
 %Mem=128GB
 %NProcShared=24
 Will use up to   24 processors via shared memory.
 ------------------------------------------------------------
 #p opt=tight m06/cc-pvtz scf=tight integral=(grid=ultrafine)
 ------------------------------------------------------------
 1/7=10,14=-1,18=20,19=15,26=4,38=1/1,3;
 2/9=110,12=2,17=6,18=5,40=1/2;
 3/5=16,6=1,11=2,16=1,25=1,30=1,71=1,74=-54,75=-5/1,2,3;
 4//1;
 5/5=2,32=2,38=5/2;
 6/7=2,8=2,9=2,10=2,28=1/1;
 7//1,2,3,16;
 1/7=10,14=-1,18=20,19=15,26=4/3(2);
 2/9=110/2;
 99//99;
 2/9=110/2;
 3/5=16,6=1,11=2,16=1,25=1,30=1,71=1,74=-54,75=-5/1,2,3;
 4/5=5,16=3,69=1/1;
 5/5=2,32=2,38=5/2;
 7//1,2,3,16;
 1/7=10,14=-1,18=20,19=15,26=4/3(-5);
 2/9=110/2;
 6/7=2,8=2,9=2,10=2,19=2,28=1/1;
 99/9=1/99;
 Leave Link    1 at Sat Sep 28 02:55:47 2013, MaxMem= 17179869184 cpu:        10.3
 (Enter /system/software/linux-x86_64/gaussian/g09/D.01__pgi_12.10__atlas/l101.exe)
 ---------------------
 Geometry optimisation
 ---------------------
 Symbolic Z-matrix:
 Charge =  1 Multiplicity = 1
 C                     5.7524   -1.26522   0.11551 
 C                     4.21922  -1.14816   0.20063 
 H                     3.80427  -2.09397   0.48023 
 C                     3.65958  -0.72737  -1.17099 
 H                     3.92106  -1.46214  -1.90354 
 H                     4.07452   0.21843  -1.45058 
 C                     2.1264   -0.61031  -1.08587 
 H                     1.73756  -0.31794  -2.03887 
 H                     1.71145  -1.55611  -0.80627 
 C                     1.75006   0.44722  -0.03153 
 H                     2.1389    0.15485   0.92147 
 H                     2.16501   1.39302  -0.31113 
 C                     0.21688   0.56428   0.05359 
 H                    -0.17196   0.85665  -0.89942 
 H                    -0.19807  -0.38153   0.33318 
 O                     6.47453  -0.26486   0.36325 
 N                     3.85999  -0.1387    1.20704 
 H                     4.22339  -0.41194   2.0977 
 H                    -1.13792   1.64975   1.11527 
 H                     0.22105   1.30049   1.95066 
 H                     0.24545   2.45766   0.79869 
 N                    -0.14235   1.57373   1.05999 
 N                     6.37234  -2.54554  -0.25513 
 H                     6.54446  -3.08376   0.56991 
 C                     5.46824  -3.2883   -1.14498 
 H                     5.91949  -4.22022  -1.41477 
 H                     4.54308  -3.47291  -0.64011 
 H                     5.28407  -2.7124   -2.02777 
 C                     4.43005   1.16067   0.82292 
 C                     4.82587   2.17898   1.90827 
 H                     3.99059   2.81142   2.12558 
 H                     5.11945   1.65833   2.79576 
 H                     5.64258   2.7747    1.55757 
 O                     4.59462   1.44091  -0.39279 
 
 NAtoms=     34 NQM=       34 NQMF=       0 NMMI=      0 NMMIF=      0
                NMic=       0 NMicF=      0.
                    Isotopes and Nuclear Properties:
 (Nuclear quadrupole moments (NQMom) in fm**2, nuclear magnetic moments (NMagM)
  in nuclear magnetons)

  Atom         1           2           3           4           5           6           7           8           9          10
 IAtWgt=          12          12           1          12           1           1          12           1           1          12
 AtmWgt=  12.0000000  12.0000000   1.0078250  12.0000000   1.0078250   1.0078250  12.0000000   1.0078250   1.0078250  12.0000000
 NucSpn=           0           0           1           0           1           1           0           1           1           0
 AtZEff=   0.0000000   0.0000000   0.0000000   0.0000000   0.0000000   0.0000000   0.0000000   0.0000000   0.0000000   0.0000000
 NQMom=    0.0000000   0.0000000   0.0000000   0.0000000   0.0000000   0.0000000   0.0000000   0.0000000   0.0000000   0.0000000
 NMagM=    0.0000000   0.0000000   2.7928460   0.0000000   2.7928460   2.7928460   0.0000000   2.7928460   2.7928460   0.0000000
 AtZNuc=   6.0000000   6.0000000   1.0000000   6.0000000   1.0000000   1.0000000   6.0000000   1.0000000   1.0000000   6.0000000

  Atom        11          12          13          14          15          16          17          18          19          20
 IAtWgt=           1           1          12           1           1          16          14           1           1           1
 AtmWgt=   1.0078250   1.0078250  12.0000000   1.0078250   1.0078250  15.9949146  14.0030740   1.0078250   1.0078250   1.0078250
 NucSpn=           1           1           0           1           1           0           2           1           1           1
 AtZEff=   0.0000000   0.0000000   0.0000000   0.0000000   0.0000000   0.0000000   0.0000000   0.0000000   0.0000000   0.0000000
 NQMom=    0.0000000   0.0000000   0.0000000   0.0000000   0.0000000   0.0000000   2.0440000   0.0000000   0.0000000   0.0000000
 NMagM=    2.7928460   2.7928460   0.0000000   2.7928460   2.7928460   0.0000000   0.4037610   2.7928460   2.7928460   2.7928460
 AtZNuc=   1.0000000   1.0000000   6.0000000   1.0000000   1.0000000   8.0000000   7.0000000   1.0000000   1.0000000   1.0000000

  Atom        21          22          23          24          25          26          27          28          29          30
 IAtWgt=           1          14          14           1          12           1           1           1          12          12
 AtmWgt=   1.0078250  14.0030740  14.0030740   1.0078250  12.0000000   1.0078250   1.0078250   1.0078250  12.0000000  12.0000000
 NucSpn=           1           2           2           1           0           1           1           1           0           0
 AtZEff=   0.0000000   0.0000000   0.0000000   0.0000000   0.0000000   0.0000000   0.0000000   0.0000000   0.0000000   0.0000000
 NQMom=    0.0000000   2.0440000   2.0440000   0.0000000   0.0000000   0.0000000   0.0000000   0.0000000   0.0000000   0.0000000
 NMagM=    2.7928460   0.4037610   0.4037610   2.7928460   0.0000000   2.7928460   2.7928460   2.7928460   0.0000000   0.0000000
 AtZNuc=   1.0000000   7.0000000   7.0000000   1.0000000   6.0000000   1.0000000   1.0000000   1.0000000   6.0000000   6.0000000

  Atom        31          32          33          34
 IAtWgt=           1           1           1          16
 AtmWgt=   1.0078250   1.0078250   1.0078250  15.9949146
 NucSpn=           1           1           1           0
 AtZEff=   0.0000000   0.0000000   0.0000000   0.0000000
 NQMom=    0.0000000   0.0000000   0.0000000   0.0000000
 NMagM=    2.7928460   2.7928460   2.7928460   0.0000000
 AtZNuc=   1.0000000   1.0000000   1.0000000   8.0000000
 Leave Link  101 at Sat Sep 28 02:55:49 2013, MaxMem= 17179869184 cpu:        38.9
 (Enter /system/software/linux-x86_64/gaussian/g09/D.01__pgi_12.10__atlas/l103.exe)

 GradGradGradGradGradGradGradGradGradGradGradGradGradGradGradGradGradGrad
 Berny optimization.
 Initialization pass.
                           ----------------------------
                           !    Initial Parameters    !
                           ! (Angstroms and Degrees)  !
 --------------------------                            --------------------------
 ! Name  Definition              Value          Derivative Info.                !
 --------------------------------------------------------------------------------
 ! R1    R(1,2)                  1.54           estimate D2E/DX2                !
 ! R2    R(1,16)                 1.2584         estimate D2E/DX2                !
 ! R3    R(1,23)                 1.47           estimate D2E/DX2                !
 ! R4    R(2,3)                  1.07           estimate D2E/DX2                !
 ! R5    R(2,4)                  1.54           estimate D2E/DX2                !
 ! R6    R(2,17)                 1.47           estimate D2E/DX2                !
 ! R7    R(4,5)                  1.07           estimate D2E/DX2                !
 ! R8    R(4,6)                  1.07           estimate D2E/DX2                !
 ! R9    R(4,7)                  1.54           estimate D2E/DX2                !
 ! R10   R(7,8)                  1.07           estimate D2E/DX2                !
 ! R11   R(7,9)                  1.07           estimate D2E/DX2                !
 ! R12   R(7,10)                 1.54           estimate D2E/DX2                !
 ! R13   R(10,11)                1.07           estimate D2E/DX2                !
 ! R14   R(10,12)                1.07           estimate D2E/DX2                !
 ! R15   R(10,13)                1.54           estimate D2E/DX2                !
 ! R16   R(13,14)                1.07           estimate D2E/DX2                !
 ! R17   R(13,15)                1.07           estimate D2E/DX2                !
 ! R18   R(13,22)                1.47           estimate D2E/DX2                !
 ! R19   R(17,18)                1.0            estimate D2E/DX2                !
 ! R20   R(17,29)                1.47           estimate D2E/DX2                !
 ! R21   R(19,22)                1.0            estimate D2E/DX2                !
 ! R22   R(20,22)                1.0            estimate D2E/DX2                !
 ! R23   R(21,22)                1.0            estimate D2E/DX2                !
 ! R24   R(23,24)                1.0            estimate D2E/DX2                !
 ! R25   R(23,25)                1.47           estimate D2E/DX2                !
 ! R26   R(25,26)                1.07           estimate D2E/DX2                !
 ! R27   R(25,27)                1.07           estimate D2E/DX2                !
 ! R28   R(25,28)                1.07           estimate D2E/DX2                !
 ! R29   R(29,30)                1.54           estimate D2E/DX2                !
 ! R30   R(29,34)                1.2584         estimate D2E/DX2                !
 ! R31   R(30,31)                1.07           estimate D2E/DX2                !
 ! R32   R(30,32)                1.07           estimate D2E/DX2                !
 ! R33   R(30,33)                1.07           estimate D2E/DX2                !
 ! A1    A(2,1,16)             120.0            estimate D2E/DX2                !
 ! A2    A(2,1,23)             120.0            estimate D2E/DX2                !
 ! A3    A(16,1,23)            120.0            estimate D2E/DX2                !
 ! A4    A(1,2,3)              109.4712         estimate D2E/DX2                !
 ! A5    A(1,2,4)              109.4712         estimate D2E/DX2                !
 ! A6    A(1,2,17)             109.4712         estimate D2E/DX2                !
 ! A7    A(3,2,4)              109.4712         estimate D2E/DX2                !
 ! A8    A(3,2,17)             109.4712         estimate D2E/DX2                !
 ! A9    A(4,2,17)             109.4712         estimate D2E/DX2                !
 ! A10   A(2,4,5)              109.4712         estimate D2E/DX2                !
 ! A11   A(2,4,6)              109.4712         estimate D2E/DX2                !
 ! A12   A(2,4,7)              109.4712         estimate D2E/DX2                !
 ! A13   A(5,4,6)              109.4712         estimate D2E/DX2                !
 ! A14   A(5,4,7)              109.4712         estimate D2E/DX2                !
 ! A15   A(6,4,7)              109.4712         estimate D2E/DX2                !
 ! A16   A(4,7,8)              109.4712         estimate D2E/DX2                !
 ! A17   A(4,7,9)              109.4712         estimate D2E/DX2                !
 ! A18   A(4,7,10)             109.4712         estimate D2E/DX2                !
 ! A19   A(8,7,9)              109.4712         estimate D2E/DX2                !
 ! A20   A(8,7,10)             109.4712         estimate D2E/DX2                !
 ! A21   A(9,7,10)             109.4712         estimate D2E/DX2                !
 ! A22   A(7,10,11)            109.4712         estimate D2E/DX2                !
 ! A23   A(7,10,12)            109.4712         estimate D2E/DX2                !
 ! A24   A(7,10,13)            109.4712         estimate D2E/DX2                !
 ! A25   A(11,10,12)           109.4712         estimate D2E/DX2                !
 ! A26   A(11,10,13)           109.4712         estimate D2E/DX2                !
 ! A27   A(12,10,13)           109.4712         estimate D2E/DX2                !
 ! A28   A(10,13,14)           109.4712         estimate D2E/DX2                !
 ! A29   A(10,13,15)           109.4712         estimate D2E/DX2                !
 ! A30   A(10,13,22)           109.4712         estimate D2E/DX2                !
 ! A31   A(14,13,15)           109.4712         estimate D2E/DX2                !
 ! A32   A(14,13,22)           109.4712         estimate D2E/DX2                !
 ! A33   A(15,13,22)           109.4712         estimate D2E/DX2                !
 ! A34   A(2,17,18)            109.4712         estimate D2E/DX2                !
 ! A35   A(2,17,29)            109.4712         estimate D2E/DX2                !
 ! A36   A(18,17,29)           109.4712         estimate D2E/DX2                !
 ! A37   A(13,22,19)           109.4712         estimate D2E/DX2                !
 ! A38   A(13,22,20)           109.4712         estimate D2E/DX2                !
 ! A39   A(13,22,21)           109.4712         estimate D2E/DX2                !
 ! A40   A(19,22,20)           109.4712         estimate D2E/DX2                !
 ! A41   A(19,22,21)           109.4712         estimate D2E/DX2                !
 ! A42   A(20,22,21)           109.4712         estimate D2E/DX2                !
 ! A43   A(1,23,24)            109.4712         estimate D2E/DX2                !
 ! A44   A(1,23,25)            109.4712         estimate D2E/DX2                !
 ! A45   A(24,23,25)           109.4712         estimate D2E/DX2                !
 ! A46   A(23,25,26)           109.4712         estimate D2E/DX2                !
 ! A47   A(23,25,27)           109.4712         estimate D2E/DX2                !
 ! A48   A(23,25,28)           109.4712         estimate D2E/DX2                !
 ! A49   A(26,25,27)           109.4712         estimate D2E/DX2                !
 ! A50   A(26,25,28)           109.4712         estimate D2E/DX2                !
 ! A51   A(27,25,28)           109.4712         estimate D2E/DX2                !
 ! A52   A(17,29,30)           120.0            estimate D2E/DX2                !
 ! A53   A(17,29,34)           120.0            estimate D2E/DX2                !
 ! A54   A(30,29,34)           120.0            estimate D2E/DX2                !
 ! A55   A(29,30,31)           109.4712         estimate D2E/DX2                !
 ! A56   A(29,30,32)           109.4712         estimate D2E/DX2                !
 ! A57   A(29,30,33)           109.4712         estimate D2E/DX2                !
 ! A58   A(31,30,32)           109.4712         estimate D2E/DX2                !
 ! A59   A(31,30,33)           109.4712         estimate D2E/DX2                !
 ! A60   A(32,30,33)           109.4712         estimate D2E/DX2                !
 ! D1    D(16,1,2,3)          -150.0            estimate D2E/DX2                !
 ! D2    D(16,1,2,4)            90.0            estimate D2E/DX2                !
 ! D3    D(16,1,2,17)          -30.0            estimate D2E/DX2                !
 ! D4    D(23,1,2,3)            30.0            estimate D2E/DX2                !
 ! D5    D(23,1,2,4)           -90.0            estimate D2E/DX2                !
 ! D6    D(23,1,2,17)          150.0            estimate D2E/DX2                !
 ! D7    D(2,1,23,24)          -90.0            estimate D2E/DX2                !
 ! D8    D(2,1,23,25)           30.0            estimate D2E/DX2                !
 ! D9    D(16,1,23,24)          90.0            estimate D2E/DX2                !
 ! D10   D(16,1,23,25)        -150.0            estimate D2E/DX2                !
 ! D11   D(1,2,4,5)             60.0            estimate D2E/DX2                !
 ! D12   D(1,2,4,6)            -60.0            estimate D2E/DX2                !
 ! D13   D(1,2,4,7)            180.0            estimate D2E/DX2                !
 ! D14   D(3,2,4,5)            -60.0            estimate D2E/DX2                !
 ! D15   D(3,2,4,6)            180.0            estimate D2E/DX2                !
 ! D16   D(3,2,4,7)             60.0            estimate D2E/DX2                !
 ! D17   D(17,2,4,5)           180.0            estimate D2E/DX2                !
 ! D18   D(17,2,4,6)            60.0            estimate D2E/DX2                !
 ! D19   D(17,2,4,7)           -60.0            estimate D2E/DX2                !
 ! D20   D(1,2,17,18)          -60.0            estimate D2E/DX2                !
 ! D21   D(1,2,17,29)           60.0            estimate D2E/DX2                !
 ! D22   D(3,2,17,18)           60.0            estimate D2E/DX2                !
 ! D23   D(3,2,17,29)          180.0            estimate D2E/DX2                !
 ! D24   D(4,2,17,18)         -180.0            estimate D2E/DX2                !
 ! D25   D(4,2,17,29)          -60.0            estimate D2E/DX2                !
 ! D26   D(2,4,7,8)           -180.0            estimate D2E/DX2                !
 ! D27   D(2,4,7,9)            -60.0            estimate D2E/DX2                !
 ! D28   D(2,4,7,10)            60.0            estimate D2E/DX2                !
 ! D29   D(5,4,7,8)            -60.0            estimate D2E/DX2                !
 ! D30   D(5,4,7,9)             60.0            estimate D2E/DX2                !
 ! D31   D(5,4,7,10)           180.0            estimate D2E/DX2                !
 ! D32   D(6,4,7,8)             60.0            estimate D2E/DX2                !
 ! D33   D(6,4,7,9)            180.0            estimate D2E/DX2                !
 ! D34   D(6,4,7,10)           -60.0            estimate D2E/DX2                !
 ! D35   D(4,7,10,11)          -60.0            estimate D2E/DX2                !
 ! D36   D(4,7,10,12)           60.0            estimate D2E/DX2                !
 ! D37   D(4,7,10,13)          180.0            estimate D2E/DX2                !
 ! D38   D(8,7,10,11)          180.0            estimate D2E/DX2                !
 ! D39   D(8,7,10,12)          -60.0            estimate D2E/DX2                !
 ! D40   D(8,7,10,13)           60.0            estimate D2E/DX2                !
 ! D41   D(9,7,10,11)           60.0            estimate D2E/DX2                !
 ! D42   D(9,7,10,12)          180.0            estimate D2E/DX2                !
 ! D43   D(9,7,10,13)          -60.0            estimate D2E/DX2                !
 ! D44   D(7,10,13,14)         -60.0            estimate D2E/DX2                !
 ! D45   D(7,10,13,15)          60.0            estimate D2E/DX2                !
 ! D46   D(7,10,13,22)         180.0            estimate D2E/DX2                !
 ! D47   D(11,10,13,14)        180.0            estimate D2E/DX2                !
 ! D48   D(11,10,13,15)        -60.0            estimate D2E/DX2                !
 ! D49   D(11,10,13,22)         60.0            estimate D2E/DX2                !
 ! D50   D(12,10,13,14)         60.0            estimate D2E/DX2                !
 ! D51   D(12,10,13,15)        180.0            estimate D2E/DX2                !
 ! D52   D(12,10,13,22)        -60.0            estimate D2E/DX2                !
 ! D53   D(10,13,22,19)        180.0            estimate D2E/DX2                !
 ! D54   D(10,13,22,20)        -60.0            estimate D2E/DX2                !
 ! D55   D(10,13,22,21)         60.0            estimate D2E/DX2                !
 ! D56   D(14,13,22,19)         60.0            estimate D2E/DX2                !
 ! D57   D(14,13,22,20)        180.0            estimate D2E/DX2                !
 ! D58   D(14,13,22,21)        -60.0            estimate D2E/DX2                !
 ! D59   D(15,13,22,19)        -60.0            estimate D2E/DX2                !
 ! D60   D(15,13,22,20)         60.0            estimate D2E/DX2                !
 ! D61   D(15,13,22,21)        180.0            estimate D2E/DX2                !
 ! D62   D(2,17,29,30)        -150.0            estimate D2E/DX2                !
 ! D63   D(2,17,29,34)          30.0            estimate D2E/DX2                !
 ! D64   D(18,17,29,30)        -30.0            estimate D2E/DX2                !
 ! D65   D(18,17,29,34)        150.0            estimate D2E/DX2                !
 ! D66   D(1,23,25,26)         180.0            estimate D2E/DX2                !
 ! D67   D(1,23,25,27)         -60.0            estimate D2E/DX2                !
 ! D68   D(1,23,25,28)          60.0            estimate D2E/DX2                !
 ! D69   D(24,23,25,26)        -60.0            estimate D2E/DX2                !
 ! D70   D(24,23,25,27)         60.0            estimate D2E/DX2                !
 ! D71   D(24,23,25,28)       -180.0            estimate D2E/DX2                !
 ! D72   D(17,29,30,31)        -90.0            estimate D2E/DX2                !
 ! D73   D(17,29,30,32)         30.0            estimate D2E/DX2                !
 ! D74   D(17,29,30,33)        150.0            estimate D2E/DX2                !
 ! D75   D(34,29,30,31)         90.0            estimate D2E/DX2                !
 ! D76   D(34,29,30,32)       -150.0            estimate D2E/DX2                !
 ! D77   D(34,29,30,33)        -30.0            estimate D2E/DX2                !
 --------------------------------------------------------------------------------
 Trust Radius=3.00D-01 FncErr=1.00D-07 GrdErr=1.00D-06
 Number of steps in this run=    180 maximum allowed number of steps=    204.
 GradGradGradGradGradGradGradGradGradGradGradGradGradGradGradGradGradGrad

 Leave Link  103 at Sat Sep 28 02:55:49 2013, MaxMem= 17179869184 cpu:         0.8
 (Enter /system/software/linux-x86_64/gaussian/g09/D.01__pgi_12.10__atlas/l202.exe)
                          Input orientation:                          
 ---------------------------------------------------------------------
 Center     Atomic      Atomic             Coordinates (Angstroms)
 Number     Number       Type             X           Y           Z
 ---------------------------------------------------------------------
      1          6           0        5.752402   -1.265223    0.115510
      2          6           0        4.219219   -1.148160    0.200632
      3          1           0        3.804275   -2.093965    0.480229
      4          6           0        3.659579   -0.727371   -1.170987
      5          1           0        3.921059   -1.462144   -1.903542
      6          1           0        4.074523    0.218434   -1.450584
      7          6           0        2.126396   -0.610308   -1.085865
      8          1           0        1.737556   -0.317941   -2.038873
      9          1           0        1.711452   -1.556113   -0.806268
     10          6           0        1.750061    0.447216   -0.031534
     11          1           0        2.138901    0.154850    0.921474
     12          1           0        2.165005    1.393021   -0.311131
     13          6           0        0.216878    0.564279    0.053588
     14          1           0       -0.171962    0.856646   -0.899421
     15          1           0       -0.198066   -0.381526    0.333185
     16          8           0        6.474534   -0.264861    0.363245
     17          7           0        3.859990   -0.138705    1.207039
     18          1           0        4.223392   -0.411945    2.097701
     19          1           0       -1.137924    1.649749    1.115268
     20          1           0        0.221051    1.300494    1.950656
     21          1           0        0.245447    2.457664    0.798689
     22          7           0       -0.142351    1.573734    1.059994
     23          7           0        6.372336   -2.545537   -0.255134
     24          1           0        6.544456   -3.083759    0.569907
     25          6           0        5.468242   -3.288295   -1.144978
     26          1           0        5.919487   -4.220224   -1.414767
     27          1           0        4.543082   -3.472911   -0.640106
     28          1           0        5.284074   -2.712397   -2.027771
     29          6           0        4.430053    1.160672    0.822920
     30          6           0        4.825869    2.178978    1.908269
     31          1           0        3.990592    2.811423    2.125582
     32          1           0        5.119446    1.658334    2.795761
     33          1           0        5.642585    2.774701    1.557570
     34          8           0        4.594619    1.440908   -0.392792
 ---------------------------------------------------------------------
                    Distance matrix (angstroms):
                    1          2          3          4          5
     1  C    0.000000
     2  C    1.540000   0.000000
     3  H    2.148263   1.070000   0.000000
     4  C    2.514809   1.540000   2.148263   0.000000
     5  H    2.732978   2.148263   2.468846   1.070000   0.000000
     6  H    2.732978   2.148263   3.024610   1.070000   1.747303
     7  C    3.875582   2.514809   2.732978   1.540000   2.148263
     8  H    4.653783   3.444314   3.710993   2.148263   2.468846
     9  H    4.154945   2.732978   2.514809   2.148263   2.468846
    10  C    4.355778   2.948875   3.307461   2.514809   3.444314
    11  H    3.965295   2.558352   2.832902   2.732978   3.710993
    12  H    4.485276   3.307461   3.933514   2.732978   3.710993
    13  C    5.830346   4.355778   4.485276   3.875582   4.653783
    14  H    6.374206   4.950943   5.140039   4.154945   4.810184
    15  H    6.019665   4.485276   4.355778   4.154945   4.810184
    16  O    1.258400   2.427572   3.238764   3.239097   3.618293
    17  N    2.457987   1.470000   2.086720   2.457987   3.380966
    18  H    2.644813   2.034920   2.370879   3.331921   4.147803
    19  H    7.548057   6.112596   6.232495   5.821830   6.662612
    20  H    6.367613   5.004381   5.150146   5.067580   6.014737
    21  H    6.682302   5.399120   5.786536   5.067580   6.014737
    22  N    6.610585   5.212533   5.418856   4.972628   5.874555
    23  N    1.470000   2.606971   2.709173   3.391691   3.146387
    24  H    2.034920   3.047890   2.914846   4.111665   3.953453
    25  C    2.400500   2.819735   2.614672   3.135326   2.510781
    26  H    3.331921   3.864971   3.547691   4.167330   3.440875
    27  H    2.628174   2.493230   1.924183   2.932645   2.454866
    28  H    2.628174   2.923446   2.976967   2.704329   1.853747
    29  C    2.852017   2.400500   3.331921   2.852017   3.817307
    30  C    3.991862   3.788654   4.619632   4.391914   5.348491
    31  H    4.874772   4.408628   5.177329   4.847680   5.873845
    32  H    4.016411   3.927023   4.601208   4.853647   5.766885
    33  H    4.290988   4.388176   5.314504   4.862287   5.735312
    34  O    2.986968   2.682602   3.725875   2.486226   3.341222
                    6          7          8          9         10
     6  H    0.000000
     7  C    2.148263   0.000000
     8  H    2.468846   1.070000   0.000000
     9  H    3.024610   1.070000   1.747303   0.000000
    10  C    2.732978   1.540000   2.148263   2.148263   0.000000
    11  H    3.062243   2.148263   3.024610   2.468846   1.070000
    12  H    2.514809   2.148263   2.468846   3.024610   1.070000
    13  C    4.154945   2.514809   2.732978   2.732978   1.540000
    14  H    4.329403   2.732978   2.514809   3.062243   2.148263
    15  H    4.668704   2.732978   3.062243   2.514809   2.148263
    16  O    3.046900   4.596254   5.311492   5.071690   4.794116
    17  N    2.690081   2.912931   3.882370   3.267823   2.515784
    18  H    3.606919   3.817307   4.826952   4.006495   3.374784
    19  H    5.983466   4.539673   4.699872   4.699872   3.331921
    20  H    5.252479   4.062261   4.564588   4.240535   2.644813
    21  H    4.973450   4.062261   4.240535   4.564588   2.644813
    22  N    5.091352   3.810770   4.088455   4.088455   2.457987
    23  N    3.787952   4.739539   5.442894   4.796514   5.511079
    24  H    4.592105   5.327175   6.128766   5.252188   5.984625
    25  C    3.785895   4.282878   4.851811   4.150741   5.386898
    26  H    4.806960   5.246638   5.753770   5.017501   6.409559
    27  H    3.808209   3.772740   4.447624   3.423427   4.851672
    28  H    3.222721   3.908567   4.279175   3.948758   5.143673
    29  C    2.486571   3.476588   4.198297   4.174442   2.901976
    30  C    3.961079   4.902256   5.599305   5.569489   4.027708
    31  H    4.418099   5.049442   5.675543   5.732853   3.906738
    32  H    4.603979   5.401121   6.222262   5.909459   4.562144
    33  H    4.247624   5.550641   6.143948   6.308525   4.805640
    34  O    1.698195   3.283286   3.737104   4.179205   3.034706
                   11         12         13         14         15
    11  H    0.000000
    12  H    1.747303   0.000000
    13  C    2.148263   2.148263   0.000000
    14  H    3.024610   2.468846   1.070000   0.000000
    15  H    2.468846   3.024610   1.070000   1.747303   0.000000
    16  O    4.391524   4.666411   6.319938   6.857697   6.673687
    17  N    1.769143   2.742991   3.885473   4.656665   4.158173
    18  H    2.459648   3.646551   4.602561   5.469113   4.760644
    19  H    3.606919   3.606919   2.034920   2.370879   2.370879
    20  H    2.459648   2.983823   2.034920   2.911082   2.370879
    21  H    2.983823   2.459648   2.034920   2.370879   2.911082
    22  N    2.690081   2.690081   1.470000   2.086720   2.086720
    23  N    5.157370   5.763420   6.903327   7.403904   6.942568
    24  H    5.479151   6.324348   7.322090   7.924392   7.267716
    25  C    5.216318   5.789767   6.622364   7.003766   6.537684
    26  H    6.236355   6.842709   7.587311   7.946442   7.430706
    27  H    4.623772   5.425935   5.957865   6.406555   5.743034
    28  H    5.177959   5.434143   6.383192   6.616614   6.407881
    29  C    2.504150   2.543718   4.324165   4.923153   4.902826
    30  C    3.505803   3.552980   5.223973   5.883027   5.854656
    31  H    3.454854   3.358899   4.856309   5.504421   5.563494
    32  H    3.828455   4.295567   5.722905   6.503543   6.204937
    33  H    4.420864   4.182660   6.048655   6.597325   6.750859
    34  O    3.067865   2.431458   4.486909   4.828906   5.178624
                   16         17         18         19         20
    16  O    0.000000
    17  N    2.750226   0.000000
    18  H    2.845630   1.000000   0.000000
    19  H    7.885479   5.309061   5.827475   0.000000
    20  H    6.638995   3.983232   4.355778   1.632993   0.000000
    21  H    6.811995   4.469094   5.074065   1.632993   1.632993
    22  N    6.902829   4.355778   4.907083   1.000000   1.000000
    23  N    2.365231   3.773947   3.834841   8.711053   7.582597
    24  H    2.827328   4.035547   3.854878   9.040048   7.817518
    25  C    3.525410   4.247161   4.509768   8.551867   7.627119
    26  H    4.371991   5.270123   5.451345   9.521802   8.618386
    27  H    3.876701   3.872401   4.119139   7.848364   6.940994
    28  H    3.622787   4.372174   4.841141   8.375505   7.587185
    29  C    2.534432   1.470000   2.034920   5.597056   4.359706
    30  C    3.328294   2.606971   2.666785   6.039517   4.688057
    31  H    4.328894   3.092577   3.231884   5.354615   4.064842
    32  H    3.384091   2.709173   2.361410   6.479106   4.983625
    33  H    3.370087   3.433431   3.529952   6.887413   5.632125
    34  O    2.648645   2.365231   3.126249   5.931266   4.963826
                   21         22         23         24         25
    21  H    0.000000
    22  N    1.000000   0.000000
    23  N    7.980058   7.819150   0.000000
    24  H    8.392688   8.163688   1.000000   0.000000
    25  C    8.004466   7.744674   1.470000   2.034920   0.000000
    26  H    9.038158   8.743013   2.086720   2.370879   1.070000
    27  H    7.464015   7.093113   2.086720   2.370879   1.070000
    28  H    7.752817   7.573065   2.086720   2.911082   1.070000
    29  C    4.381062   4.597140   4.320955   4.748675   4.974311
    30  C    4.721133   5.076327   5.421523   5.695714   6.294921
    31  H    3.988972   4.443936   6.327522   6.610259   7.077187
    32  H    5.327578   5.541349   5.343241   5.428861   6.334053
    33  H    5.459442   5.929198   5.667747   6.009193   6.640337
    34  O    4.622631   4.956523   4.367032   5.020086   4.867686
                   26         27         28         29         30
    26  H    0.000000
    27  H    1.747303   0.000000
    28  H    1.747303   1.747303   0.000000
    29  C    6.014956   4.860382   4.884307   0.000000
    30  C    7.293035   6.206290   6.295071   1.540000   0.000000
    31  H    8.105478   6.888188   7.031076   2.148263   1.070000
    32  H    7.275030   6.202182   6.511287   2.148263   1.070000
    33  H    7.605290   6.713519   6.564407   2.148263   1.070000
    34  O    5.903230   4.920309   4.516464   1.258400   2.427572
                   31         32         33         34
    31  H    0.000000
    32  H    1.747303   0.000000
    33  H    1.747303   1.747303   0.000000
    34  O    2.930080   3.238764   2.584792   0.000000
 Stoichiometry    C9H20N3O2(1+)
 Framework group  C1[X(C9H20N3O2)]
 Deg. of freedom    96
 Full point group                 C1      NOp   1
 Largest Abelian subgroup         C1      NOp   1
 Largest concise Abelian subgroup C1      NOp   1
                         Standard orientation:                         
 ---------------------------------------------------------------------
 Center     Atomic      Atomic             Coordinates (Angstroms)
 Number     Number       Type             X           Y           Z
 ---------------------------------------------------------------------
      1          6           0       -2.281114    0.235909   -0.208358
      2          6           0       -0.906181   -0.409670   -0.462104
      3          1           0       -0.994663   -1.145634   -1.233744
      4          6           0       -0.407083   -1.079716    0.831550
      5          1           0       -1.104100   -1.832679    1.135052
      6          1           0       -0.318601   -0.343752    1.603190
      7          6           0        0.967849   -1.725295    0.577804
      8          1           0        1.314625   -2.190846    1.476641
      9          1           0        0.879367   -2.461259   -0.193836
     10          6           0        1.971033   -0.641591    0.140988
     11          1           0        1.624257   -0.176040   -0.757850
     12          1           0        2.059515    0.094373    0.912627
     13          6           0        3.345966   -1.287171   -0.112759
     14          1           0        3.692741   -1.752722    0.786079
     15          1           0        3.257483   -2.023135   -0.884398
     16          8           0       -2.352950    1.428330    0.187297
     17          7           0        0.051403    0.624774   -0.879065
     18          1           0       -0.272686    1.059869   -1.719100
     19          1           0        5.196364   -0.671933   -0.694490
     20          1           0        3.979461    0.182369   -1.369755
     21          1           0        4.386244    0.435091    0.191439
     22          7           0        4.303550   -0.252726   -0.529720
     23          7           0       -3.509634   -0.540782   -0.428329
     24          1           0       -3.814695   -0.421544   -1.373168
     25          6           0       -3.241428   -1.963896   -0.175914
     26          1           0       -4.135658   -2.529243   -0.336030
     27          1           0       -2.478390   -2.306836   -0.843046
     28          1           0       -2.915013   -2.091481    0.835063
     29          6           0        0.172963    1.635865    0.181038
     30          6           0        0.503970    3.095550   -0.181390
     31          1           0        1.565436    3.230385   -0.184420
     32          1           0        0.113223    3.319455   -1.152000
     33          1           0        0.063235    3.751008    0.540433
     34          8           0        0.006546    1.308643    1.384700
 ---------------------------------------------------------------------
 Rotational constants (GHZ):      1.0027857      0.4393558      0.3411041
 Leave Link  202 at Sat Sep 28 02:55:49 2013, MaxMem= 17179869184 cpu:         0.5
 (Enter /system/software/linux-x86_64/gaussian/g09/D.01__pgi_12.10__atlas/l301.exe)
 Standard basis: CC-pVTZ (5D, 7F)
 Ernie: Thresh=  0.10000D-02 Tol=  0.10000D-05 Strict=F.
 Ernie:  42 primitive shells out of 524 were deleted.
 There are   790 symmetry adapted cartesian basis functions of A   symmetry.
 There are   700 symmetry adapted basis functions of A   symmetry.
   700 basis functions,  1068 primitive gaussians,   790 cartesian basis functions
    55 alpha electrons       55 beta electrons
       nuclear repulsion energy      1017.9538688915 Hartrees.
 IExCor= 4235 DFT=T Ex+Corr=M06 ExCW=0 ScaHFX=  0.270000
 ScaDFX=  1.000000  1.000000  1.000000  1.000000 ScalE2=  1.000000  1.000000
 IRadAn=      5 IRanWt=     -1 IRanGd=            0 ICorTp=0 IEmpDi=  4
 NAtoms=   34 NActive=   34 NUniq=   34 SFac= 1.00D+00 NAtFMM=   60 NAOKFM=F Big=F
 Integral buffers will be    131072 words long.
 Raffenetti 2 integral format.
 Two-electron integral symmetry is turned on.
 Leave Link  301 at Sat Sep 28 02:55:50 2013, MaxMem= 17179869184 cpu:         8.3
 (Enter /system/software/linux-x86_64/gaussian/g09/D.01__pgi_12.10__atlas/l302.exe)
 NPDir=0 NMtPBC=     1 NCelOv=     1 NCel=       1 NClECP=     1 NCelD=      1
         NCelK=      1 NCelE2=     1 NClLst=     1 CellRange=     0.0.
 One-electron integrals computed using PRISM.
 NBasis=   700 RedAO= T EigKep=  1.82D-04  NBF=   700
 NBsUse=   700 1.00D-06 EigRej= -1.00D+00 NBFU=   700
 Precomputing XC quadrature grid using
 IXCGrd= 4 IRadAn=           5 IRanWt=          -1 IRanGd=           0 AccXCQ= 0.00D+00.
 Generated NRdTot=       0 NPtTot=           0 NUsed=           0 NTot=          32
 NSgBfM=   785   785   785   786   786 MxSgAt=    34 MxSgA2=    34.
 Leave Link  302 at Sat Sep 28 02:55:54 2013, MaxMem= 17179869184 cpu:        81.7
 (Enter /system/software/linux-x86_64/gaussian/g09/D.01__pgi_12.10__atlas/l303.exe)
 DipDrv:  MaxL=1.
 Leave Link  303 at Sat Sep 28 02:55:55 2013, MaxMem= 17179869184 cpu:         7.1
 (Enter /system/software/linux-x86_64/gaussian/g09/D.01__pgi_12.10__atlas/l401.exe)
 ExpMin= 1.03D-01 ExpMax= 1.53D+04 ExpMxC= 5.22D+02 IAcc=3 IRadAn=         5 AccDes= 0.00D+00
 Harris functional with IExCor= 1009 and IRadAn=       5 diagonalized for initial guess.
 HarFok:  IExCor= 1009 AccDes= 0.00D+00 IRadAn=         5 IDoV= 1 UseB2=F ITyADJ=14
 ICtDFT=  3500011 ScaDFX=  1.000000  1.000000  1.000000  1.000000
 FoFCou: FMM=F IPFlag=           0 FMFlag=      100000 FMFlg1=           0
         NFxFlg=           0 DoJE=T BraDBF=F KetDBF=T FulRan=T
         wScrn=  0.000000 ICntrl=     500 IOpCl=  0 I1Cent=   200000004 NGrid=           0
         NMat0=    1 NMatS0=      1 NMatT0=    0 NMatD0=    1 NMtDS0=    0 NMtDT0=    0
 Petite list used in FoFCou.
 Harris En= -669.144966259394    
 JPrj=0 DoOrth=F DoCkMO=F.
 Leave Link  401 at Sat Sep 28 02:56:03 2013, MaxMem= 17179869184 cpu:       168.7
 (Enter /system/software/linux-x86_64/gaussian/g09/D.01__pgi_12.10__atlas/l502.exe)
 Closed shell SCF:
 Using DIIS extrapolation, IDIIS=  1040.
 Integral symmetry usage will be decided dynamically.
 IVT=     1915578 IEndB=     1915578 NGot= 17179869184 MDV= 17178595137
 LenX= 17178595137 LenY= 17177970247
 Requested convergence on RMS density matrix=1.00D-08 within 128 cycles.
 Requested convergence on MAX density matrix=1.00D-06.
 Requested convergence on             energy=1.00D-06.
 No special actions if energy rises.
 Fock matrices will be formed incrementally for  20 cycles.
 Integral accuracy reduced to 1.0D-05 until final iterations.

 Cycle   1  Pass 0  IDiag  1:
 FoFJK:  IHMeth= 1 ICntrl=       0 DoSepK=F KAlg= 0 I1Cent=   0 FoldK=F
 IRaf= 830000000 NMat=   1 IRICut=       1 DoRegI=T DoRafI=F ISym2E= 0.
 FoFCou: FMM=F IPFlag=           0 FMFlag=      100000 FMFlg1=           0
         NFxFlg=           0 DoJE=F BraDBF=F KetDBF=F FulRan=T
         wScrn=  0.000000 ICntrl=       0 IOpCl=  0 I1Cent=           0 NGrid=           0
         NMat0=    1 NMatS0=      1 NMatT0=    0 NMatD0=    1 NMtDS0=    0 NMtDT0=    0
 Symmetry not used in FoFCou.
 E= -668.749720590977    
 DIIS: error= 1.60D-02 at cycle   1 NSaved=   1.
 NSaved= 1 IEnMin= 1 EnMin= -668.749720590977     IErMin= 1 ErrMin= 1.60D-02
 ErrMax= 1.60D-02  0.00D+00 EMaxC= 1.00D-01 BMatC= 4.77D-01 BMatP= 4.77D-01
 IDIUse=3 WtCom= 8.40D-01 WtEn= 1.60D-01
 Coeff-Com:  0.100D+01
 Coeff-En:   0.100D+01
 Coeff:      0.100D+01
 Gap=     0.185 Goal=   None    Shift=    0.000
 GapD=    0.185 DampG=1.000 DampE=0.500 DampFc=0.5000 IDamp=-1.
 Damping current iteration by 5.00D-01
 RMSDP=4.36D-03 MaxDP=7.13D-01              OVMax= 5.13D-01

 Cycle   2  Pass 0  IDiag  1:
 RMSU=  2.18D-03    CP:  1.00D+00
 E= -668.794065010663     Delta-E=       -0.044344419686 Rises=F Damp=T
 DIIS: error= 7.80D-03 at cycle   2 NSaved=   2.
 NSaved= 2 IEnMin= 2 EnMin= -668.794065010663     IErMin= 2 ErrMin= 7.80D-03
 ErrMax= 7.80D-03  0.00D+00 EMaxC= 1.00D-01 BMatC= 1.00D-01 BMatP= 4.77D-01
 IDIUse=3 WtCom= 9.22D-01 WtEn= 7.80D-02
 Coeff-Com:  0.253D+00 0.747D+00
 Coeff-En:   0.447D+00 0.553D+00
 Coeff:      0.268D+00 0.732D+00
 Gap=     0.149 Goal=   None    Shift=    0.000
 RMSDP=2.04D-03 MaxDP=3.52D-01 DE=-4.43D-02 OVMax= 3.71D-01

 Cycle   3  Pass 0  IDiag  1:
 RMSU=  8.98D-04    CP:  1.00D+00  1.62D-01
 E= -669.072461374465     Delta-E=       -0.278396363802 Rises=F Damp=F
 DIIS: error= 9.12D-03 at cycle   3 NSaved=   3.
 NSaved= 3 IEnMin= 3 EnMin= -669.072461374465     IErMin= 2 ErrMin= 7.80D-03
 ErrMax= 9.12D-03  0.00D+00 EMaxC= 1.00D-01 BMatC= 1.11D-01 BMatP= 1.00D-01
 IDIUse=3 WtCom= 9.48D-02 WtEn= 9.05D-01
 Coeff-Com:  0.838D-01 0.501D+00 0.415D+00
 Coeff-En:   0.000D+00 0.000D+00 0.100D+01
 Coeff:      0.794D-02 0.475D-01 0.945D+00
 Gap=     0.212 Goal=   None    Shift=    0.000
 RMSDP=1.19D-03 MaxDP=8.56D-02 DE=-2.78D-01 OVMax= 2.51D-01

 Cycle   4  Pass 0  IDiag  1:
 RMSU=  1.12D-03    CP:  1.01D+00  3.26D-01  8.42D-01
 E= -668.786505615896     Delta-E=        0.285955758570 Rises=F Damp=F
 DIIS: error= 1.99D-02 at cycle   4 NSaved=   4.
 NSaved= 4 IEnMin= 3 EnMin= -669.072461374465     IErMin= 2 ErrMin= 7.80D-03
 ErrMax= 1.99D-02  0.00D+00 EMaxC= 1.00D-01 BMatC= 4.83D-01 BMatP= 1.00D-01
 IDIUse=2 WtCom= 0.00D+00 WtEn= 1.00D+00
 Coeff-En:   0.000D+00 0.000D+00 0.755D+00 0.245D+00
 Coeff:      0.000D+00 0.000D+00 0.755D+00 0.245D+00
 Gap=     0.145 Goal=   None    Shift=    0.000
 RMSDP=6.94D-04 MaxDP=5.25D-02 DE= 2.86D-01 OVMax= 1.18D-01

 Cycle   5  Pass 0  IDiag  1:
 RMSU=  1.79D-04    CP:  1.00D+00  2.04D-01  8.92D-01  4.53D-01
 E= -669.142191378517     Delta-E=       -0.355685762621 Rises=F Damp=F
 DIIS: error= 4.14D-03 at cycle   5 NSaved=   5.
 NSaved= 5 IEnMin= 5 EnMin= -669.142191378517     IErMin= 5 ErrMin= 4.14D-03
 ErrMax= 4.14D-03  0.00D+00 EMaxC= 1.00D-01 BMatC= 2.56D-02 BMatP= 1.00D-01
 IDIUse=3 WtCom= 9.59D-01 WtEn= 4.14D-02
 Coeff-Com: -0.628D-02 0.274D-01 0.315D+00-0.146D-01 0.678D+00
 Coeff-En:   0.000D+00 0.000D+00 0.224D+00 0.000D+00 0.776D+00
 Coeff:     -0.602D-02 0.263D-01 0.312D+00-0.140D-01 0.682D+00
 Gap=     0.182 Goal=   None    Shift=    0.000
 RMSDP=1.90D-04 MaxDP=1.21D-02 DE=-3.56D-01 OVMax= 2.89D-02

 Cycle   6  Pass 0  IDiag  1:
 RMSU=  5.37D-05    CP:  1.00D+00  1.84D-01  9.37D-01  3.00D-01  8.91D-01
 E= -669.162262121175     Delta-E=       -0.020070742659 Rises=F Damp=F
 DIIS: error= 4.25D-04 at cycle   6 NSaved=   6.
 NSaved= 6 IEnMin= 6 EnMin= -669.162262121175     IErMin= 6 ErrMin= 4.25D-04
 ErrMax= 4.25D-04  0.00D+00 EMaxC= 1.00D-01 BMatC= 3.81D-04 BMatP= 2.56D-02
 IDIUse=3 WtCom= 9.96D-01 WtEn= 4.25D-03
 Coeff-Com: -0.922D-02 0.183D-01 0.101D+00-0.417D-01 0.364D+00 0.568D+00
 Coeff-En:   0.000D+00 0.000D+00 0.000D+00 0.000D+00 0.000D+00 0.100D+01
 Coeff:     -0.918D-02 0.182D-01 0.100D+00-0.416D-01 0.362D+00 0.570D+00
 Gap=     0.172 Goal=   None    Shift=    0.000
 RMSDP=2.59D-05 MaxDP=1.94D-03 DE=-2.01D-02 OVMax= 5.33D-03

 Cycle   7  Pass 0  IDiag  1:
 RMSU=  1.82D-05    CP:  1.00D+00  1.85D-01  9.39D-01  3.08D-01  9.47D-01
                    CP:  7.72D-01
 E= -669.162537542110     Delta-E=       -0.000275420934 Rises=F Damp=F
 DIIS: error= 2.16D-04 at cycle   7 NSaved=   7.
 NSaved= 7 IEnMin= 7 EnMin= -669.162537542110     IErMin= 7 ErrMin= 2.16D-04
 ErrMax= 2.16D-04  0.00D+00 EMaxC= 1.00D-01 BMatC= 7.68D-05 BMatP= 3.81D-04
 IDIUse=3 WtCom= 9.98D-01 WtEn= 2.16D-03
 Coeff-Com: -0.531D-02 0.718D-02 0.347D-01-0.250D-01 0.168D+00 0.368D+00
 Coeff-Com:  0.452D+00
 Coeff-En:   0.000D+00 0.000D+00 0.000D+00 0.000D+00 0.000D+00 0.900D-01
 Coeff-En:   0.910D+00
 Coeff:     -0.529D-02 0.717D-02 0.347D-01-0.249D-01 0.168D+00 0.367D+00
 Coeff:      0.453D+00
 Gap=     0.171 Goal=   None    Shift=    0.000
 RMSDP=1.12D-05 MaxDP=8.41D-04 DE=-2.75D-04 OVMax= 2.50D-03

 Cycle   8  Pass 0  IDiag  1:
 RMSU=  8.99D-06    CP:  1.00D+00  1.85D-01  9.40D-01  3.09D-01  9.55D-01
                    CP:  8.32D-01  6.99D-01
 E= -669.162590444059     Delta-E=       -0.000052901949 Rises=F Damp=F
 DIIS: error= 6.10D-05 at cycle   8 NSaved=   8.
 NSaved= 8 IEnMin= 8 EnMin= -669.162590444059     IErMin= 8 ErrMin= 6.10D-05
 ErrMax= 6.10D-05  0.00D+00 EMaxC= 1.00D-01 BMatC= 6.14D-06 BMatP= 7.68D-05
 IDIUse=1 WtCom= 1.00D+00 WtEn= 0.00D+00
 Coeff-Com: -0.341D-03-0.161D-03-0.356D-02-0.151D-02-0.277D-02 0.577D-01
 Coeff-Com:  0.241D+00 0.710D+00
 Coeff:     -0.341D-03-0.161D-03-0.356D-02-0.151D-02-0.277D-02 0.577D-01
 Coeff:      0.241D+00 0.710D+00
 Gap=     0.171 Goal=   None    Shift=    0.000
 RMSDP=3.91D-06 MaxDP=2.63D-04 DE=-5.29D-05 OVMax= 5.93D-04

 Initial convergence to 1.0D-05 achieved.  Increase integral accuracy.
 Cycle   9  Pass 1  IDiag  1:
 E= -669.162560657697     Delta-E=        0.000029786362 Rises=F Damp=F
 DIIS: error= 6.30D-05 at cycle   1 NSaved=   1.
 NSaved= 1 IEnMin= 1 EnMin= -669.162560657697     IErMin= 1 ErrMin= 6.30D-05
 ErrMax= 6.30D-05  0.00D+00 EMaxC= 1.00D-01 BMatC= 7.72D-06 BMatP= 7.72D-06
 IDIUse=1 WtCom= 1.00D+00 WtEn= 0.00D+00
 Coeff-Com:  0.100D+01
 Coeff:      0.100D+01
 Gap=     0.171 Goal=   None    Shift=    0.000
 RMSDP=3.91D-06 MaxDP=2.63D-04 DE= 2.98D-05 OVMax= 3.42D-04

 Cycle  10  Pass 1  IDiag  1:
 RMSU=  3.24D-05    CP:  1.00D+00
 E= -669.162564533394     Delta-E=       -0.000003875697 Rises=F Damp=F
 DIIS: error= 1.80D-05 at cycle   2 NSaved=   2.
 NSaved= 2 IEnMin= 2 EnMin= -669.162564533394     IErMin= 2 ErrMin= 1.80D-05
 ErrMax= 1.80D-05  0.00D+00 EMaxC= 1.00D-01 BMatC= 9.69D-07 BMatP= 7.72D-06
 IDIUse=1 WtCom= 1.00D+00 WtEn= 0.00D+00
 Coeff-Com:  0.160D+00 0.840D+00
 Coeff:      0.160D+00 0.840D+00
 Gap=     0.171 Goal=   None    Shift=    0.000
 RMSDP=2.04D-06 MaxDP=1.20D-04 DE=-3.88D-06 OVMax= 3.48D-04

 Cycle  11  Pass 1  IDiag  1:
 RMSU=  1.99D-06    CP:  1.00D+00  1.01D+00
 E= -669.162564122889     Delta-E=        0.000000410505 Rises=F Damp=F
 DIIS: error= 2.32D-05 at cycle   3 NSaved=   3.
 NSaved= 3 IEnMin= 2 EnMin= -669.162564533394     IErMin= 2 ErrMin= 1.80D-05
 ErrMax= 2.32D-05  0.00D+00 EMaxC= 1.00D-01 BMatC= 1.52D-06 BMatP= 9.69D-07
 IDIUse=1 WtCom= 1.00D+00 WtEn= 0.00D+00
 Coeff-Com:  0.747D-02 0.555D+00 0.437D+00
 Coeff:      0.747D-02 0.555D+00 0.437D+00
 Gap=     0.171 Goal=   None    Shift=    0.000
 RMSDP=1.19D-06 MaxDP=7.25D-05 DE= 4.11D-07 OVMax= 2.19D-04

 Cycle  12  Pass 1  IDiag  1:
 RMSU=  5.79D-07    CP:  1.00D+00  1.02D+00  4.84D-01
 E= -669.162565272924     Delta-E=       -0.000001150036 Rises=F Damp=F
 DIIS: error= 4.58D-06 at cycle   4 NSaved=   4.
 NSaved= 4 IEnMin= 4 EnMin= -669.162565272924     IErMin= 4 ErrMin= 4.58D-06
 ErrMax= 4.58D-06  0.00D+00 EMaxC= 1.00D-01 BMatC= 5.60D-08 BMatP= 9.69D-07
 IDIUse=1 WtCom= 1.00D+00 WtEn= 0.00D+00
 Coeff-Com: -0.103D-02 0.317D+00 0.271D+00 0.413D+00
 Coeff:     -0.103D-02 0.317D+00 0.271D+00 0.413D+00
 Gap=     0.171 Goal=   None    Shift=    0.000
 RMSDP=2.67D-07 MaxDP=2.11D-05 DE=-1.15D-06 OVMax= 4.67D-05

 Cycle  13  Pass 1  IDiag  1:
 RMSU=  2.15D-07    CP:  1.00D+00  1.02D+00  5.00D-01  7.33D-01
 E= -669.162565311222     Delta-E=       -0.000000038298 Rises=F Damp=F
 DIIS: error= 1.04D-06 at cycle   5 NSaved=   5.
 NSaved= 5 IEnMin= 5 EnMin= -669.162565311222     IErMin= 5 ErrMin= 1.04D-06
 ErrMax= 1.04D-06  0.00D+00 EMaxC= 1.00D-01 BMatC= 2.75D-09 BMatP= 5.60D-08
 IDIUse=1 WtCom= 1.00D+00 WtEn= 0.00D+00
 Coeff-Com: -0.182D-02 0.572D-01 0.556D-01 0.202D+00 0.687D+00
 Coeff:     -0.182D-02 0.572D-01 0.556D-01 0.202D+00 0.687D+00
 Gap=     0.171 Goal=   None    Shift=    0.000
 RMSDP=6.99D-08 MaxDP=3.48D-06 DE=-3.83D-08 OVMax= 1.07D-05

 Cycle  14  Pass 1  IDiag  1:
 RMSU=  5.36D-08    CP:  1.00D+00  1.02D+00  5.06D-01  7.95D-01  9.00D-01
 E= -669.162565312944     Delta-E=       -0.000000001721 Rises=F Damp=F
 DIIS: error= 3.70D-07 at cycle   6 NSaved=   6.
 NSaved= 6 IEnMin= 6 EnMin= -669.162565312944     IErMin= 6 ErrMin= 3.70D-07
 ErrMax= 3.70D-07  0.00D+00 EMaxC= 1.00D-01 BMatC= 2.99D-10 BMatP= 2.75D-09
 IDIUse=1 WtCom= 1.00D+00 WtEn= 0.00D+00
 Coeff-Com: -0.793D-03 0.510D-02 0.764D-02 0.685D-01 0.350D+00 0.569D+00
 Coeff:     -0.793D-03 0.510D-02 0.764D-02 0.685D-01 0.350D+00 0.569D+00
 Gap=     0.171 Goal=   None    Shift=    0.000
 RMSDP=2.40D-08 MaxDP=1.16D-06 DE=-1.72D-09 OVMax= 3.43D-06

 Cycle  15  Pass 1  IDiag  1:
 RMSU=  1.86D-08    CP:  1.00D+00  1.02D+00  5.06D-01  8.09D-01  9.29D-01
                    CP:  8.00D-01
 E= -669.162565313237     Delta-E=       -0.000000000293 Rises=F Damp=F
 DIIS: error= 1.04D-07 at cycle   7 NSaved=   7.
 NSaved= 7 IEnMin= 7 EnMin= -669.162565313237     IErMin= 7 ErrMin= 1.04D-07
 ErrMax= 1.04D-07  0.00D+00 EMaxC= 1.00D-01 BMatC= 2.49D-11 BMatP= 2.99D-10
 IDIUse=1 WtCom= 1.00D+00 WtEn= 0.00D+00
 Coeff-Com: -0.201D-03-0.301D-02-0.181D-02 0.117D-01 0.959D-01 0.269D+00
 Coeff-Com:  0.628D+00
 Coeff:     -0.201D-03-0.301D-02-0.181D-02 0.117D-01 0.959D-01 0.269D+00
 Coeff:      0.628D+00
 Gap=     0.171 Goal=   None    Shift=    0.000
 RMSDP=9.96D-09 MaxDP=8.68D-07 DE=-2.93D-10 OVMax= 1.88D-06

 SCF Done:  E(RM06) =  -669.162565313     A.U. after   15 cycles
            NFock= 15  Conv=0.10D-07     -V/T= 2.0068
 KE= 6.646534027850D+02 PE=-3.581091414900D+03 EE= 1.229321577911D+03
 Leave Link  502 at Sat Sep 28 03:07:52 2013, MaxMem= 17179869184 cpu:     16774.0
 (Enter /system/software/linux-x86_64/gaussian/g09/D.01__pgi_12.10__atlas/l601.exe)
 Copying SCF densities to generalized density rwf, IOpCl= 0 IROHF=0.

 **********************************************************************

            Population analysis using the SCF density.

 **********************************************************************

 Orbital symmetries:
       Occupied  (A) (A) (A) (A) (A) (A) (A) (A) (A) (A) (A) (A)
                 (A) (A) (A) (A) (A) (A) (A) (A) (A) (A) (A) (A)
                 (A) (A) (A) (A) (A) (A) (A) (A) (A) (A) (A) (A)
                 (A) (A) (A) (A) (A) (A) (A) (A) (A) (A) (A) (A)
                 (A) (A) (A) (A) (A) (A) (A)
       Virtual   (A) (A) (A) (A) (A) (A) (A) (A) (A) (A) (A) (A)
                 (A) (A) (A) (A) (A) (A) (A) (A) (A) (A) (A) (A)
                 (A) (A) (A) (A) (A) (A) (A) (A) (A) (A) (A) (A)
                 (A) (A) (A) (A) (A) (A) (A) (A) (A) (A) (A) (A)
                 (A) (A) (A) (A) (A) (A) (A) (A) (A) (A) (A) (A)
                 (A) (A) (A) (A) (A) (A) (A) (A) (A) (A) (A) (A)
                 (A) (A) (A) (A) (A) (A) (A) (A) (A) (A) (A) (A)
                 (A) (A) (A) (A) (A) (A) (A) (A) (A) (A) (A) (A)
                 (A) (A) (A) (A) (A) (A) (A) (A) (A) (A) (A) (A)
                 (A) (A) (A) (A) (A) (A) (A) (A) (A) (A) (A) (A)
                 (A) (A) (A) (A) (A) (A) (A) (A) (A) (A) (A) (A)
                 (A) (A) (A) (A) (A) (A) (A) (A) (A) (A) (A) (A)
                 (A) (A) (A) (A) (A) (A) (A) (A) (A) (A) (A) (A)
                 (A) (A) (A) (A) (A) (A) (A) (A) (A) (A) (A) (A)
                 (A) (A) (A) (A) (A) (A) (A) (A) (A) (A) (A) (A)
                 (A) (A) (A) (A) (A) (A) (A) (A) (A) (A) (A) (A)
                 (A) (A) (A) (A) (A) (A) (A) (A) (A) (A) (A) (A)
                 (A) (A) (A) (A) (A) (A) (A) (A) (A) (A) (A) (A)
                 (A) (A) (A) (A) (A) (A) (A) (A) (A) (A) (A) (A)
                 (A) (A) (A) (A) (A) (A) (A) (A) (A) (A) (A) (A)
                 (A) (A) (A) (A) (A) (A) (A) (A) (A) (A) (A) (A)
                 (A) (A) (A) (A) (A) (A) (A) (A) (A) (A) (A) (A)
                 (A) (A) (A) (A) (A) (A) (A) (A) (A) (A) (A) (A)
                 (A) (A) (A) (A) (A) (A) (A) (A) (A) (A) (A) (A)
                 (A) (A) (A) (A) (A) (A) (A) (A) (A) (A) (A) (A)
                 (A) (A) (A) (A) (A) (A) (A) (A) (A) (A) (A) (A)
                 (A) (A) (A) (A) (A) (A) (A) (A) (A) (A) (A) (A)
                 (A) (A) (A) (A) (A) (A) (A) (A) (A) (A) (A) (A)
                 (A) (A) (A) (A) (A) (A) (A) (A) (A) (A) (A) (A)
                 (A) (A) (A) (A) (A) (A) (A) (A) (A) (A) (A) (A)
                 (A) (A) (A) (A) (A) (A) (A) (A) (A) (A) (A) (A)
                 (A) (A) (A) (A) (A) (A) (A) (A) (A) (A) (A) (A)
                 (A) (A) (A) (A) (A) (A) (A) (A) (A) (A) (A) (A)
                 (A) (A) (A) (A) (A) (A) (A) (A) (A) (A) (A) (A)
                 (A) (A) (A) (A) (A) (A) (A) (A) (A) (A) (A) (A)
                 (A) (A) (A) (A) (A) (A) (A) (A) (A) (A) (A) (A)
                 (A) (A) (A) (A) (A) (A) (A) (A) (A) (A) (A) (A)
                 (A) (A) (A) (A) (A) (A) (A) (A) (A) (A) (A) (A)
                 (A) (A) (A) (A) (A) (A) (A) (A) (A) (A) (A) (A)
                 (A) (A) (A) (A) (A) (A) (A) (A) (A) (A) (A) (A)
                 (A) (A) (A) (A) (A) (A) (A) (A) (A) (A) (A) (A)
                 (A) (A) (A) (A) (A) (A) (A) (A) (A) (A) (A) (A)
                 (A) (A) (A) (A) (A) (A) (A) (A) (A) (A) (A) (A)
                 (A) (A) (A) (A) (A) (A) (A) (A) (A) (A) (A) (A)
                 (A) (A) (A) (A) (A) (A) (A) (A) (A) (A) (A) (A)
                 (A) (A) (A) (A) (A) (A) (A) (A) (A) (A) (A) (A)
                 (A) (A) (A) (A) (A) (A) (A) (A) (A) (A) (A) (A)
                 (A) (A) (A) (A) (A) (A) (A) (A) (A) (A) (A) (A)
                 (A) (A) (A) (A) (A) (A) (A) (A) (A) (A) (A) (A)
                 (A) (A) (A) (A) (A) (A) (A) (A) (A) (A) (A) (A)
                 (A) (A) (A) (A) (A) (A) (A) (A) (A) (A) (A) (A)
                 (A) (A) (A) (A) (A) (A) (A) (A) (A) (A) (A) (A)
                 (A) (A) (A) (A) (A) (A) (A) (A) (A) (A) (A) (A)
                 (A) (A) (A) (A) (A) (A) (A) (A) (A)
 The electronic state is 1-A.
 Alpha  occ. eigenvalues --  -19.30625 -19.29728 -14.70277 -14.53313 -14.49695
 Alpha  occ. eigenvalues --  -10.47663 -10.46112 -10.45965 -10.40604 -10.37417
 Alpha  occ. eigenvalues --  -10.36406 -10.35214 -10.34994 -10.33483  -1.22512
 Alpha  occ. eigenvalues --   -1.16633  -1.14217  -1.05449  -1.02108  -0.96519
 Alpha  occ. eigenvalues --   -0.91319  -0.86881  -0.84546  -0.81186  -0.80623
 Alpha  occ. eigenvalues --   -0.79458  -0.76843  -0.73344  -0.70281  -0.68575
 Alpha  occ. eigenvalues --   -0.67994  -0.65131  -0.63968  -0.62364  -0.59128
 Alpha  occ. eigenvalues --   -0.58436  -0.57455  -0.56828  -0.56151  -0.55015
 Alpha  occ. eigenvalues --   -0.53975  -0.53052  -0.52258  -0.51890  -0.51406
 Alpha  occ. eigenvalues --   -0.50591  -0.50085  -0.48210  -0.47571  -0.46901
 Alpha  occ. eigenvalues --   -0.45120  -0.40937  -0.37673  -0.36552  -0.35172
 Alpha virt. eigenvalues --   -0.18035  -0.13468  -0.12646  -0.12461  -0.10948
 Alpha virt. eigenvalues --   -0.09605  -0.07822  -0.06133  -0.05595  -0.04619
 Alpha virt. eigenvalues --   -0.03945  -0.03162  -0.01998  -0.01633  -0.01144
 Alpha virt. eigenvalues --   -0.00311   0.00493   0.01271   0.01649   0.01982
 Alpha virt. eigenvalues --    0.03176   0.04045   0.04444   0.04805   0.05902
 Alpha virt. eigenvalues --    0.07222   0.07979   0.08262   0.08729   0.09429
 Alpha virt. eigenvalues --    0.10343   0.10437   0.12076   0.12508   0.12990
 Alpha virt. eigenvalues --    0.14641   0.15351   0.15760   0.16300   0.16636
 Alpha virt. eigenvalues --    0.17955   0.18712   0.19855   0.20220   0.20958
 Alpha virt. eigenvalues --    0.21641   0.22185   0.23058   0.23466   0.24008
 Alpha virt. eigenvalues --    0.24314   0.24887   0.25654   0.26480   0.26744
 Alpha virt. eigenvalues --    0.27046   0.27693   0.28124   0.28762   0.30010
 Alpha virt. eigenvalues --    0.30106   0.30722   0.31053   0.31595   0.32594
 Alpha virt. eigenvalues --    0.32756   0.33450   0.33599   0.34050   0.34256
 Alpha virt. eigenvalues --    0.35284   0.35395   0.35823   0.36619   0.37558
 Alpha virt. eigenvalues --    0.37791   0.38965   0.39461   0.40006   0.40132
 Alpha virt. eigenvalues --    0.40465   0.41215   0.42978   0.43275   0.44503
 Alpha virt. eigenvalues --    0.45818   0.46757   0.47299   0.48821   0.49794
 Alpha virt. eigenvalues --    0.50917   0.51221   0.51921   0.52479   0.54180
 Alpha virt. eigenvalues --    0.54594   0.55673   0.58043   0.58158   0.59352
 Alpha virt. eigenvalues --    0.60675   0.61917   0.62553   0.64028   0.64307
 Alpha virt. eigenvalues --    0.65997   0.66613   0.67198   0.67528   0.68841
 Alpha virt. eigenvalues --    0.69862   0.70549   0.71210   0.71767   0.72291
 Alpha virt. eigenvalues --    0.73153   0.73837   0.75062   0.76287   0.77861
 Alpha virt. eigenvalues --    0.78827   0.79547   0.80025   0.81359   0.82186
 Alpha virt. eigenvalues --    0.82907   0.83417   0.84242   0.84969   0.86403
 Alpha virt. eigenvalues --    0.86706   0.87716   0.87873   0.89435   0.89503
 Alpha virt. eigenvalues --    0.89824   0.90865   0.91927   0.92508   0.93474
 Alpha virt. eigenvalues --    0.93984   0.94421   0.95804   0.96169   0.97933
 Alpha virt. eigenvalues --    0.97958   0.98676   0.99195   0.99428   1.00289
 Alpha virt. eigenvalues --    1.01418   1.02443   1.02613   1.03016   1.04013
 Alpha virt. eigenvalues --    1.04384   1.05004   1.05857   1.06490   1.07027
 Alpha virt. eigenvalues --    1.07385   1.08745   1.09211   1.09734   1.10523
 Alpha virt. eigenvalues --    1.11138   1.11932   1.12142   1.12973   1.13325
 Alpha virt. eigenvalues --    1.14538   1.15361   1.15667   1.16846   1.18005
 Alpha virt. eigenvalues --    1.18151   1.18555   1.19359   1.19993   1.20191
 Alpha virt. eigenvalues --    1.21229   1.22033   1.22377   1.24224   1.25114
 Alpha virt. eigenvalues --    1.25676   1.26021   1.26890   1.27990   1.29361
 Alpha virt. eigenvalues --    1.30662   1.31124   1.31979   1.33171   1.33319
 Alpha virt. eigenvalues --    1.34084   1.35464   1.36875   1.37091   1.38339
 Alpha virt. eigenvalues --    1.40251   1.41026   1.42016   1.42655   1.44572
 Alpha virt. eigenvalues --    1.45086   1.47407   1.47586   1.48981   1.49257
 Alpha virt. eigenvalues --    1.51612   1.52667   1.53842   1.54895   1.56140
 Alpha virt. eigenvalues --    1.57539   1.58389   1.58805   1.60586   1.62956
 Alpha virt. eigenvalues --    1.63339   1.64613   1.67035   1.69050   1.70265
 Alpha virt. eigenvalues --    1.71941   1.72696   1.75506   1.76913   1.80158
 Alpha virt. eigenvalues --    1.82633   1.84711   1.86610   1.93758   1.96962
 Alpha virt. eigenvalues --    1.98436   2.02103   2.03172   2.05275   2.07731
 Alpha virt. eigenvalues --    2.09467   2.10360   2.11597   2.12944   2.13959
 Alpha virt. eigenvalues --    2.15943   2.17215   2.18233   2.20359   2.20930
 Alpha virt. eigenvalues --    2.21777   2.23082   2.23629   2.27349   2.28757
 Alpha virt. eigenvalues --    2.29112   2.29313   2.31895   2.33152   2.34764
 Alpha virt. eigenvalues --    2.36310   2.36967   2.37306   2.38166   2.40778
 Alpha virt. eigenvalues --    2.42784   2.44561   2.44837   2.46199   2.46817
 Alpha virt. eigenvalues --    2.47059   2.48533   2.49539   2.50221   2.50939
 Alpha virt. eigenvalues --    2.51541   2.51999   2.53119   2.53898   2.54969
 Alpha virt. eigenvalues --    2.55717   2.56258   2.57575   2.58128   2.59451
 Alpha virt. eigenvalues --    2.60190   2.61408   2.61745   2.62843   2.64514
 Alpha virt. eigenvalues --    2.65098   2.67063   2.67918   2.68123   2.69570
 Alpha virt. eigenvalues --    2.70557   2.71814   2.72731   2.73412   2.74549
 Alpha virt. eigenvalues --    2.74988   2.75274   2.76622   2.77265   2.78165
 Alpha virt. eigenvalues --    2.79130   2.79723   2.80603   2.82040   2.82253
 Alpha virt. eigenvalues --    2.82700   2.84235   2.85036   2.85432   2.85538
 Alpha virt. eigenvalues --    2.86294   2.86847   2.87862   2.88510   2.89176
 Alpha virt. eigenvalues --    2.90253   2.90810   2.92090   2.92828   2.93014
 Alpha virt. eigenvalues --    2.93620   2.94135   2.94952   2.95639   2.96477
 Alpha virt. eigenvalues --    2.96782   2.97613   2.98808   2.99179   2.99787
 Alpha virt. eigenvalues --    3.01117   3.01389   3.02826   3.03374   3.03805
 Alpha virt. eigenvalues --    3.04522   3.05158   3.06189   3.07072   3.07699
 Alpha virt. eigenvalues --    3.08520   3.09320   3.10251   3.10670   3.11425
 Alpha virt. eigenvalues --    3.14022   3.14495   3.14771   3.15528   3.16960
 Alpha virt. eigenvalues --    3.18199   3.19064   3.19578   3.20283   3.20675
 Alpha virt. eigenvalues --    3.21338   3.21882   3.23057   3.23486   3.24367
 Alpha virt. eigenvalues --    3.25269   3.26526   3.27512   3.27919   3.28272
 Alpha virt. eigenvalues --    3.29962   3.30254   3.30847   3.31962   3.33001
 Alpha virt. eigenvalues --    3.33483   3.34136   3.34732   3.36280   3.37217
 Alpha virt. eigenvalues --    3.37468   3.37833   3.38995   3.40595   3.41744
 Alpha virt. eigenvalues --    3.42828   3.43667   3.44081   3.44631   3.45282
 Alpha virt. eigenvalues --    3.47029   3.47730   3.48232   3.49864   3.51045
 Alpha virt. eigenvalues --    3.51900   3.52525   3.53148   3.53432   3.54358
 Alpha virt. eigenvalues --    3.55862   3.56544   3.58680   3.59475   3.59809
 Alpha virt. eigenvalues --    3.60433   3.61928   3.63449   3.64668   3.65095
 Alpha virt. eigenvalues --    3.65223   3.66454   3.67279   3.67682   3.69402
 Alpha virt. eigenvalues --    3.70492   3.70674   3.71803   3.72211   3.72899
 Alpha virt. eigenvalues --    3.74065   3.74875   3.75642   3.76148   3.76287
 Alpha virt. eigenvalues --    3.78012   3.78233   3.78858   3.79396   3.82042
 Alpha virt. eigenvalues --    3.82417   3.83115   3.83965   3.85046   3.85313
 Alpha virt. eigenvalues --    3.86104   3.86980   3.87820   3.88192   3.89647
 Alpha virt. eigenvalues --    3.90758   3.92181   3.93232   3.93744   3.95289
 Alpha virt. eigenvalues --    3.95489   3.95987   3.96400   3.97297   3.98287
 Alpha virt. eigenvalues --    3.98789   3.99145   4.00369   4.00888   4.02284
 Alpha virt. eigenvalues --    4.02784   4.03327   4.04656   4.05058   4.05956
 Alpha virt. eigenvalues --    4.06360   4.07281   4.08836   4.09055   4.09994
 Alpha virt. eigenvalues --    4.10461   4.11409   4.12636   4.12712   4.14163
 Alpha virt. eigenvalues --    4.15417   4.16332   4.16917   4.18052   4.18549
 Alpha virt. eigenvalues --    4.19507   4.20264   4.21206   4.22753   4.24132
 Alpha virt. eigenvalues --    4.24928   4.26261   4.26682   4.27598   4.28449
 Alpha virt. eigenvalues --    4.29215   4.30729   4.32297   4.32762   4.34056
 Alpha virt. eigenvalues --    4.35598   4.37083   4.38310   4.40442   4.42592
 Alpha virt. eigenvalues --    4.44811   4.45853   4.47605   4.49021   4.50975
 Alpha virt. eigenvalues --    4.52643   4.53840   4.54369   4.55106   4.56681
 Alpha virt. eigenvalues --    4.56963   4.59990   4.61199   4.62523   4.63762
 Alpha virt. eigenvalues --    4.66059   4.66905   4.68161   4.69433   4.70065
 Alpha virt. eigenvalues --    4.70764   4.71692   4.72434   4.73683   4.74423
 Alpha virt. eigenvalues --    4.75317   4.77420   4.77832   4.79749   4.81297
 Alpha virt. eigenvalues --    4.82219   4.82979   4.84371   4.86523   4.87415
 Alpha virt. eigenvalues --    4.88488   4.89642   4.90157   4.91509   4.92051
 Alpha virt. eigenvalues --    4.92659   4.94038   4.95424   4.96605   4.98521
 Alpha virt. eigenvalues --    5.00618   5.01249   5.02548   5.04154   5.05088
 Alpha virt. eigenvalues --    5.05357   5.06072   5.07533   5.07554   5.09772
 Alpha virt. eigenvalues --    5.10145   5.10679   5.11160   5.12333   5.13225
 Alpha virt. eigenvalues --    5.13939   5.15340   5.16660   5.17003   5.17610
 Alpha virt. eigenvalues --    5.18064   5.19320   5.19699   5.21142   5.21923
 Alpha virt. eigenvalues --    5.23715   5.24847   5.25593   5.27558   5.28421
 Alpha virt. eigenvalues --    5.29507   5.31065   5.33001   5.35030   5.35732
 Alpha virt. eigenvalues --    5.40260   5.41486   5.44187   5.45385   5.48244
 Alpha virt. eigenvalues --    5.48799   5.49725   5.50554   5.51649   5.54373
 Alpha virt. eigenvalues --    5.55076   5.56544   5.59305   5.60916   5.62079
 Alpha virt. eigenvalues --    5.64029   5.64810   5.65543   5.66562   5.67656
 Alpha virt. eigenvalues --    5.70405   5.71011   5.73590   5.75166   5.76252
 Alpha virt. eigenvalues --    5.76714   5.79898   5.80813   5.82696   5.83619
 Alpha virt. eigenvalues --    5.85696   5.86814   5.90385   5.93454   5.95390
 Alpha virt. eigenvalues --    6.00366   6.03755   6.05776   6.12380   6.15117
 Alpha virt. eigenvalues --    6.37621   6.40383   6.44679   6.45584   6.50378
 Alpha virt. eigenvalues --    6.53129   6.55749   6.63013   6.67434   6.76549
 Alpha virt. eigenvalues --    6.78927   6.83684   6.98903   7.01949   7.11610
 Alpha virt. eigenvalues --    7.18424   8.97889   9.55905  11.64254  11.95223
 Alpha virt. eigenvalues --   12.19759  12.59303  12.77691  12.87865  13.01762
 Alpha virt. eigenvalues --   13.41849  13.46812  13.68363  13.74975  14.60903
          Condensed to atoms (all electrons):
               1          2          3          4          5          6
     1  C    4.642135   0.158320  -0.006900  -0.024649   0.001009   0.001802
     2  C    0.158320   5.589981   0.406453   0.144670  -0.049352  -0.028777
     3  H   -0.006900   0.406453   0.413192  -0.024724  -0.003323   0.002231
     4  C   -0.024649   0.144670  -0.024724   5.434052   0.428869   0.413791
     5  H    0.001009  -0.049352  -0.003323   0.428869   0.445373  -0.004929
     6  H    0.001802  -0.028777   0.002231   0.413791  -0.004929   0.377249
     7  C   -0.001262  -0.026377  -0.000727   0.227536  -0.037619  -0.011943
     8  H   -0.000071   0.005566   0.000234  -0.028052  -0.003769  -0.001748
     9  H    0.000222  -0.001745   0.002333  -0.033086  -0.004767   0.002865
    10  C   -0.000578  -0.011917  -0.002571  -0.017785   0.008037  -0.009496
    11  H    0.000474  -0.001954  -0.001825  -0.010371  -0.000153   0.001023
    12  H    0.000579  -0.001657   0.000253  -0.001036   0.000204   0.000641
    13  C    0.000023   0.000617  -0.000150   0.005302  -0.000232   0.000304
    14  H   -0.000001   0.000019   0.000003  -0.000148  -0.000027   0.000065
    15  H    0.000001  -0.000043   0.000066  -0.000185  -0.000036  -0.000019
    16  O    0.681036  -0.127762   0.001969   0.006511   0.000136   0.000987
    17  N   -0.031138   0.267972  -0.021951  -0.038592   0.003096   0.003616
    18  H   -0.001707  -0.033378  -0.003249   0.009591  -0.000153  -0.000699
    19  H    0.000000   0.000002   0.000000   0.000021  -0.000001   0.000002
    20  H    0.000000  -0.000008   0.000005   0.000006  -0.000001   0.000007
    21  H   -0.000001   0.000006   0.000002  -0.000019  -0.000001  -0.000018
    22  N    0.000000  -0.000021  -0.000001  -0.000088   0.000005  -0.000005
    23  N    0.392103  -0.112385   0.003666   0.009178  -0.000015  -0.000033
    24  H   -0.006501   0.002573   0.001260   0.000065   0.000043   0.000036
    25  C   -0.058752   0.009356  -0.010741  -0.015326   0.000263   0.000137
    26  H    0.005542  -0.001297   0.000081   0.000960   0.000459  -0.000001
    27  H   -0.025226   0.036851  -0.006647  -0.016843  -0.004339   0.000060
    28  H    0.003141  -0.012880   0.002027  -0.000746   0.004198   0.000411
    29  C   -0.004456  -0.080594   0.004526  -0.013109   0.001521  -0.012986
    30  C   -0.000847   0.003422  -0.000302  -0.001874   0.000110   0.000623
    31  H    0.000203  -0.000771   0.000018   0.000161  -0.000004  -0.000086
    32  H    0.000070  -0.000074   0.000031   0.000045  -0.000013  -0.000066
    33  H   -0.000109   0.000287   0.000015  -0.000079  -0.000009   0.000132
    34  O   -0.007573   0.006417  -0.001068  -0.069797   0.004555   0.022627
               7          8          9         10         11         12
     1  C   -0.001262  -0.000071   0.000222  -0.000578   0.000474   0.000579
     2  C   -0.026377   0.005566  -0.001745  -0.011917  -0.001954  -0.001657
     3  H   -0.000727   0.000234   0.002333  -0.002571  -0.001825   0.000253
     4  C    0.227536  -0.028052  -0.033086  -0.017785  -0.010371  -0.001036
     5  H   -0.037619  -0.003769  -0.004767   0.008037  -0.000153   0.000204
     6  H   -0.011943  -0.001748   0.002865  -0.009496   0.001023   0.000641
     7  C    5.216339   0.437063   0.433976   0.184092  -0.010861  -0.019043
     8  H    0.437063   0.478252  -0.017660  -0.037969   0.002421  -0.000316
     9  H    0.433976  -0.017660   0.476056  -0.049410  -0.001366   0.003707
    10  C    0.184092  -0.037969  -0.049410   5.615060   0.370765   0.401206
    11  H   -0.010861   0.002421  -0.001366   0.370765   0.440071  -0.033766
    12  H   -0.019043  -0.000316   0.003707   0.401206  -0.033766   0.460403
    13  C   -0.056828  -0.008116  -0.005442   0.215735  -0.022994  -0.024539
    14  H    0.002708   0.003378  -0.000032  -0.052290   0.002360   0.000174
    15  H    0.004438   0.000275   0.001991  -0.050150  -0.000660   0.002472
    16  O   -0.000114   0.000009  -0.000008  -0.000045  -0.000176   0.000292
    17  N    0.014968  -0.000396  -0.000205  -0.125463   0.055607  -0.013577
    18  H   -0.002138   0.000069  -0.000131   0.005722  -0.001150   0.000437
    19  H   -0.000478  -0.000006   0.000004   0.005257  -0.000140  -0.000084
    20  H    0.000165   0.000030   0.000019   0.002797   0.003499  -0.000527
    21  H    0.000393   0.000030   0.000008   0.002247  -0.000611   0.003248
    22  N    0.001984   0.000122   0.000147  -0.031282  -0.002758  -0.003060
    23  N   -0.000333   0.000025  -0.000156   0.000021  -0.000112   0.000026
    24  H    0.000062   0.000000  -0.000008  -0.000011   0.000005  -0.000001
    25  C    0.000488  -0.000063   0.000169   0.000002   0.000041  -0.000016
    26  H   -0.000065  -0.000001  -0.000004   0.000004  -0.000001   0.000000
    27  H    0.000343  -0.000114   0.001078   0.000088   0.000125  -0.000014
    28  H    0.000710   0.000024  -0.000009  -0.000113  -0.000028   0.000007
    29  C   -0.000620  -0.000113   0.000132  -0.022154  -0.014534   0.008583
    30  C    0.000112  -0.000004  -0.000015  -0.001721   0.001653  -0.000598
    31  H    0.000042   0.000008   0.000002   0.001046   0.000141  -0.000343
    32  H   -0.000049   0.000000   0.000006   0.000666  -0.000671   0.000322
    33  H    0.000017  -0.000001   0.000001  -0.000049   0.000025  -0.000018
    34  O   -0.004292  -0.000132  -0.000438  -0.002078  -0.000842   0.012582
              13         14         15         16         17         18
     1  C    0.000023  -0.000001   0.000001   0.681036  -0.031138  -0.001707
     2  C    0.000617   0.000019  -0.000043  -0.127762   0.267972  -0.033378
     3  H   -0.000150   0.000003   0.000066   0.001969  -0.021951  -0.003249
     4  C    0.005302  -0.000148  -0.000185   0.006511  -0.038592   0.009591
     5  H   -0.000232  -0.000027  -0.000036   0.000136   0.003096  -0.000153
     6  H    0.000304   0.000065  -0.000019   0.000987   0.003616  -0.000699
     7  C   -0.056828   0.002708   0.004438  -0.000114   0.014968  -0.002138
     8  H   -0.008116   0.003378   0.000275   0.000009  -0.000396   0.000069
     9  H   -0.005442  -0.000032   0.001991  -0.000008  -0.000205  -0.000131
    10  C    0.215735  -0.052290  -0.050150  -0.000045  -0.125463   0.005722
    11  H   -0.022994   0.002360  -0.000660  -0.000176   0.055607  -0.001150
    12  H   -0.024539   0.000174   0.002472   0.000292  -0.013577   0.000437
    13  C    5.075754   0.434817   0.432318   0.000002   0.003953  -0.000054
    14  H    0.434817   0.486179  -0.023252   0.000000  -0.000555   0.000019
    15  H    0.432318  -0.023252   0.491642   0.000000   0.000637  -0.000028
    16  O    0.000002   0.000000   0.000000   7.806300  -0.002510   0.001043
    17  N    0.003953  -0.000555   0.000637  -0.002510   6.672866   0.358407
    18  H   -0.000054   0.000019  -0.000028   0.001043   0.358407   0.565185
    19  H   -0.020739  -0.002466  -0.003398   0.000000  -0.000010   0.000000
    20  H   -0.024729   0.005276  -0.005916   0.000000  -0.000757   0.000080
    21  H   -0.025469  -0.006054   0.005524   0.000000   0.000151  -0.000007
    22  N    0.216267  -0.022805  -0.022545   0.000000  -0.000095  -0.000003
    23  N    0.000000   0.000000   0.000000  -0.080268   0.003569   0.000442
    24  H    0.000000   0.000000   0.000000   0.001475  -0.000169  -0.000076
    25  C    0.000001   0.000000   0.000000   0.003185   0.000718   0.000039
    26  H    0.000000   0.000000   0.000000  -0.000207   0.000006   0.000001
    27  H    0.000004   0.000000  -0.000003  -0.000637   0.000185  -0.000124
    28  H    0.000000   0.000000   0.000000   0.001077   0.000048  -0.000017
    29  C    0.001177  -0.000077  -0.000084   0.035358   0.205241   0.000777
    30  C   -0.000097  -0.000005   0.000005   0.000719  -0.068909  -0.004997
    31  H   -0.000190   0.000005   0.000002   0.000509  -0.000166   0.000631
    32  H    0.000004   0.000001   0.000000   0.001370   0.009325   0.001136
    33  H    0.000007  -0.000001   0.000000   0.000112   0.004596  -0.000738
    34  O    0.000698   0.000075  -0.000045  -0.024510  -0.088519   0.003371
              19         20         21         22         23         24
     1  C    0.000000   0.000000  -0.000001   0.000000   0.392103  -0.006501
     2  C    0.000002  -0.000008   0.000006  -0.000021  -0.112385   0.002573
     3  H    0.000000   0.000005   0.000002  -0.000001   0.003666   0.001260
     4  C    0.000021   0.000006  -0.000019  -0.000088   0.009178   0.000065
     5  H   -0.000001  -0.000001  -0.000001   0.000005  -0.000015   0.000043
     6  H    0.000002   0.000007  -0.000018  -0.000005  -0.000033   0.000036
     7  C   -0.000478   0.000165   0.000393   0.001984  -0.000333   0.000062
     8  H   -0.000006   0.000030   0.000030   0.000122   0.000025   0.000000
     9  H    0.000004   0.000019   0.000008   0.000147  -0.000156  -0.000008
    10  C    0.005257   0.002797   0.002247  -0.031282   0.000021  -0.000011
    11  H   -0.000140   0.003499  -0.000611  -0.002758  -0.000112   0.000005
    12  H   -0.000084  -0.000527   0.003248  -0.003060   0.000026  -0.000001
    13  C   -0.020739  -0.024729  -0.025469   0.216267   0.000000   0.000000
    14  H   -0.002466   0.005276  -0.006054  -0.022805   0.000000   0.000000
    15  H   -0.003398  -0.005916   0.005524  -0.022545   0.000000   0.000000
    16  O    0.000000   0.000000   0.000000   0.000000  -0.080268   0.001475
    17  N   -0.000010  -0.000757   0.000151  -0.000095   0.003569  -0.000169
    18  H    0.000000   0.000080  -0.000007  -0.000003   0.000442  -0.000076
    19  H    0.550723  -0.028641  -0.029373   0.396133   0.000000   0.000000
    20  H   -0.028641   0.558882  -0.031164   0.387287   0.000000   0.000000
    21  H   -0.029373  -0.031164   0.558472   0.386188   0.000000   0.000000
    22  N    0.396133   0.387287   0.386188   5.405521   0.000000   0.000000
    23  N    0.000000   0.000000   0.000000   0.000000   6.425240   0.368285
    24  H    0.000000   0.000000   0.000000   0.000000   0.368285   0.572821
    25  C    0.000000   0.000000   0.000000   0.000000   0.253405  -0.025793
    26  H    0.000000   0.000000   0.000000   0.000000  -0.020161  -0.005540
    27  H    0.000000   0.000000   0.000000   0.000000  -0.049337  -0.010469
    28  H    0.000000   0.000000   0.000000   0.000000  -0.029415   0.006592
[...]
     9  H    0.000163  -0.001591   0.003434  -0.029264  -0.002140   0.002885
    10  C   -0.000392  -0.001782  -0.002620  -0.028658   0.007429  -0.009267
    11  H    0.000946   0.006194   0.000156  -0.008414  -0.000362   0.001887
    12  H   -0.000037  -0.001195   0.000116   0.001212   0.000472   0.002466
    13  C   -0.000011  -0.000205  -0.000106   0.003618  -0.000103   0.000079
    14  H   -0.000001  -0.000003   0.000002  -0.000353  -0.000031   0.000050
    15  H    0.000000  -0.000015   0.000014   0.000067  -0.000017  -0.000015
    16  O    0.756635  -0.124375   0.001326   0.000838  -0.000426   0.002913
    17  N   -0.047461   0.287203  -0.018611  -0.030527   0.003227  -0.004231
    18  H   -0.002853  -0.036147  -0.007179   0.008687  -0.000172  -0.000416
    19  H    0.000000   0.000000   0.000000   0.000019  -0.000001   0.000002
    20  H    0.000000  -0.000021   0.000001  -0.000001   0.000000  -0.000001
    21  H    0.000000   0.000002   0.000001  -0.000034  -0.000002  -0.000031
    22  N    0.000000   0.000016   0.000000  -0.000118   0.000005   0.000006
    23  N    0.439856  -0.104881  -0.005186   0.008663   0.007584  -0.001747
    24  H   -0.032807   0.018634  -0.000351  -0.001357  -0.000369  -0.000001
    25  C   -0.047282   0.004278  -0.000228  -0.005093  -0.003163   0.000238
    26  H    0.005445  -0.000914   0.000461   0.000149   0.000059   0.000012
    27  H   -0.000997  -0.006595   0.003484  -0.000955   0.001723  -0.000158
    28  H   -0.009963   0.004280  -0.004085   0.004931  -0.006297   0.000986
    29  C    0.001904  -0.077135   0.005989  -0.000495   0.000828   0.002592
    30  C   -0.000573   0.004077  -0.000117  -0.000378   0.000056   0.000715
    31  H   -0.000177   0.002887   0.000024  -0.000303  -0.000006   0.000014
    32  H    0.000744  -0.001195   0.000006  -0.000022  -0.000002  -0.000100
    33  H    0.000177  -0.001162   0.000022   0.000144  -0.000002  -0.000047
    34  O   -0.003627   0.007848  -0.000469  -0.003266   0.001288   0.012185
               7          8          9         10         11         12
     1  C   -0.001630   0.000033   0.000163  -0.000392   0.000946  -0.000037
     2  C   -0.033294   0.005682  -0.001591  -0.001782   0.006194  -0.001195
     3  H    0.003035   0.000070   0.003434  -0.002620   0.000156   0.000116
     4  C    0.243085  -0.035954  -0.029264  -0.028658  -0.008414   0.001212
     5  H   -0.045136  -0.006476  -0.002140   0.007429  -0.000362   0.000472
     6  H   -0.022985  -0.000597   0.002885  -0.009267   0.001887   0.002466
     7  C    5.234222   0.434357   0.421285   0.193072  -0.026554  -0.025649
     8  H    0.434357   0.499461  -0.018357  -0.044288   0.003733  -0.000755
     9  H    0.421285  -0.018357   0.477495  -0.039242  -0.001818   0.003713
    10  C    0.193072  -0.044288  -0.039242   5.386848   0.380227   0.399878
    11  H   -0.026554   0.003733  -0.001818   0.380227   0.495763  -0.025492
    12  H   -0.025649  -0.000755   0.003713   0.399878  -0.025492   0.452475
    13  C   -0.042983  -0.004965  -0.005509   0.231072  -0.021975  -0.028477
    14  H    0.003755   0.002185   0.000339  -0.048878   0.002920  -0.001772
    15  H    0.001885   0.000483   0.001452  -0.044631  -0.001288   0.003071
    16  O    0.000007   0.000010  -0.000001  -0.000159   0.000035  -0.000017
    17  N    0.003210  -0.000066   0.000054  -0.018075   0.029816  -0.000252
    18  H   -0.001234   0.000031  -0.000124   0.001153  -0.000514  -0.000159
    19  H   -0.000450  -0.000003   0.000015   0.004097   0.000177   0.000055
    20  H    0.000420   0.000016  -0.000001   0.003632   0.002499  -0.001088
    21  H    0.000525   0.000040   0.000010   0.002796  -0.001209   0.004278
    22  N    0.001541   0.000166   0.000060  -0.034006  -0.002193  -0.003600
    23  N    0.000489  -0.000037   0.000012  -0.000029  -0.000012   0.000009
    24  H    0.000037  -0.000005   0.000001   0.000009   0.000003  -0.000001
    25  C    0.000563   0.000016   0.000033   0.000012   0.000003  -0.000002
    26  H   -0.000024   0.000002  -0.000004  -0.000001   0.000000   0.000000
    27  H    0.000160  -0.000023   0.000043  -0.000004  -0.000002   0.000001
    28  H   -0.000760   0.000154   0.000255   0.000030   0.000000  -0.000005
    29  C   -0.000053  -0.000124   0.000151  -0.004066  -0.009434  -0.003463
    30  C   -0.000261  -0.000001  -0.000012   0.000511  -0.000630   0.000369
    31  H    0.000020   0.000000   0.000004  -0.000248   0.000633  -0.000086
    32  H    0.000014   0.000000   0.000001  -0.000008   0.000081  -0.000008
    33  H    0.000034   0.000000   0.000002   0.000038  -0.000235   0.000097
    34  O   -0.009376  -0.000104  -0.000213   0.011150  -0.012892   0.014768
              13         14         15         16         17         18
     1  C   -0.000011  -0.000001   0.000000   0.756635  -0.047461  -0.002853
     2  C   -0.000205  -0.000003  -0.000015  -0.124375   0.287203  -0.036147
     3  H   -0.000106   0.000002   0.000014   0.001326  -0.018611  -0.007179
     4  C    0.003618  -0.000353   0.000067   0.000838  -0.030527   0.008687
     5  H   -0.000103  -0.000031  -0.000017  -0.000426   0.003227  -0.000172
     6  H    0.000079   0.000050  -0.000015   0.002913  -0.004231  -0.000416
     7  C   -0.042983   0.003755   0.001885   0.000007   0.003210  -0.001234
     8  H   -0.004965   0.002185   0.000483   0.000010  -0.000066   0.000031
     9  H   -0.005509   0.000339   0.001452  -0.000001   0.000054  -0.000124
    10  C    0.231072  -0.048878  -0.044631  -0.000159  -0.018075   0.001153
    11  H   -0.021975   0.002920  -0.001288   0.000035   0.029816  -0.000514
    12  H   -0.028477  -0.001772   0.003071  -0.000017  -0.000252  -0.000159
    13  C    5.022007   0.430045   0.427077  -0.000001   0.000303   0.000030
    14  H    0.430045   0.485667  -0.021851   0.000000  -0.000044   0.000002
    15  H    0.427077  -0.021851   0.488011   0.000000   0.000091  -0.000003
    16  O   -0.000001   0.000000   0.000000   7.801728  -0.001878   0.001191
    17  N    0.000303  -0.000044   0.000091  -0.001878   6.511172   0.383334
    18  H    0.000030   0.000002  -0.000003   0.001191   0.383334   0.552019
    19  H   -0.016089  -0.002415  -0.001897   0.000000   0.000003   0.000000
    20  H   -0.023204   0.004823  -0.005630   0.000000  -0.000153   0.000003
    21  H   -0.023412  -0.005059   0.004705   0.000000   0.000014  -0.000001
    22  N    0.216173  -0.020893  -0.021851   0.000000   0.000044  -0.000001
    23  N    0.000001   0.000000   0.000000  -0.122765   0.004120   0.000181
    24  H    0.000000   0.000000   0.000000   0.012110  -0.000757  -0.000070
    25  C    0.000001   0.000000   0.000000   0.002508   0.000076   0.000056
    26  H    0.000000   0.000000   0.000000  -0.000282   0.000012  -0.000002
    27  H    0.000000   0.000000   0.000000   0.000389   0.000299   0.000079
    28  H   -0.000003   0.000000   0.000000   0.000055  -0.000119  -0.000036
    29  C    0.000697  -0.000021  -0.000044   0.026945   0.268383  -0.017457
    30  C    0.000019   0.000000  -0.000001  -0.003450  -0.084448  -0.000010
    31  H   -0.000005   0.000000   0.000001  -0.000019   0.009752  -0.004284
    32  H    0.000001   0.000000   0.000000   0.006641  -0.001967  -0.000756
    33  H   -0.000017   0.000000   0.000000   0.000261   0.007769   0.000164
    34  O    0.001267   0.000009  -0.000052  -0.004608  -0.124106   0.005210
              19         20         21         22         23         24
     1  C    0.000000   0.000000   0.000000   0.000000   0.439856  -0.032807
     2  C    0.000000  -0.000021   0.000002   0.000016  -0.104881   0.018634
     3  H    0.000000   0.000001   0.000001   0.000000  -0.005186  -0.000351
     4  C    0.000019  -0.000001  -0.000034  -0.000118   0.008663  -0.001357
     5  H   -0.000001   0.000000  -0.000002   0.000005   0.007584  -0.000369
     6  H    0.000002  -0.000001  -0.000031   0.000006  -0.001747  -0.000001
     7  C   -0.000450   0.000420   0.000525   0.001541   0.000489   0.000037
     8  H   -0.000003   0.000016   0.000040   0.000166  -0.000037  -0.000005
     9  H    0.000015  -0.000001   0.000010   0.000060   0.000012   0.000001
    10  C    0.004097   0.003632   0.002796  -0.034006  -0.000029   0.000009
    11  H    0.000177   0.002499  -0.001209  -0.002193  -0.000012   0.000003
    12  H    0.000055  -0.001088   0.004278  -0.003600   0.000009  -0.000001
    13  C   -0.016089  -0.023204  -0.023412   0.216173   0.000001   0.000000
    14  H   -0.002415   0.004823  -0.005059  -0.020893   0.000000   0.000000
    15  H   -0.001897  -0.005630   0.004705  -0.021851   0.000000   0.000000
    16  O    0.000000   0.000000   0.000000   0.000000  -0.122765   0.012110
    17  N    0.000003  -0.000153   0.000014   0.000044   0.004120  -0.000757
    18  H    0.000000   0.000003  -0.000001  -0.000001   0.000181  -0.000070
    19  H    0.536491  -0.027840  -0.026512   0.390123   0.000000   0.000000
    20  H   -0.027840   0.548098  -0.027456   0.378381   0.000000   0.000000
    21  H   -0.026512  -0.027456   0.540717   0.378764   0.000000   0.000000
    22  N    0.390123   0.378381   0.378764   5.495313   0.000000   0.000000
    23  N    0.000000   0.000000   0.000000   0.000000   6.376902   0.358043
    24  H    0.000000   0.000000   0.000000   0.000000   0.358043   0.556598
    25  C    0.000000   0.000000   0.000000   0.000000   0.292765  -0.025140
    26  H    0.000000   0.000000   0.000000   0.000000  -0.020765  -0.010417
    27  H    0.000000   0.000000   0.000000   0.000000  -0.047624   0.001198
    28  H    0.000000   0.000000   0.000000   0.000000  -0.052312   0.003381
    29  C   -0.000002   0.000030   0.000035  -0.000031   0.000426  -0.000198
    30  C    0.000000   0.000005  -0.000017   0.000004   0.000001  -0.000007
    31  H    0.000000  -0.000007   0.000001   0.000002  -0.000004   0.000001
    32  H    0.000000   0.000000   0.000000   0.000000   0.000043   0.000009
    33  H    0.000000   0.000015   0.000008  -0.000004   0.000004  -0.000001
    34  O   -0.000005   0.000151  -0.000002  -0.000116  -0.000091   0.000020
              25         26         27         28         29         30
     1  C   -0.047282   0.005445  -0.000997  -0.009963   0.001904  -0.000573
     2  C    0.004278  -0.000914  -0.006595   0.004280  -0.077135   0.004077
     3  H   -0.000228   0.000461   0.003484  -0.004085   0.005989  -0.000117
     4  C   -0.005093   0.000149  -0.000955   0.004931  -0.000495  -0.000378
     5  H   -0.003163   0.000059   0.001723  -0.006297   0.000828   0.000056
     6  H    0.000238   0.000012  -0.000158   0.000986   0.002592   0.000715
     7  C    0.000563  -0.000024   0.000160  -0.000760  -0.000053  -0.000261
     8  H    0.000016   0.000002  -0.000023   0.000154  -0.000124  -0.000001
     9  H    0.000033  -0.000004   0.000043   0.000255   0.000151  -0.000012
    10  C    0.000012  -0.000001  -0.000004   0.000030  -0.004066   0.000511
    11  H    0.000003   0.000000  -0.000002   0.000000  -0.009434  -0.000630
    12  H   -0.000002   0.000000   0.000001  -0.000005  -0.003463   0.000369
    13  C    0.000001   0.000000   0.000000  -0.000003   0.000697   0.000019
    14  H    0.000000   0.000000   0.000000   0.000000  -0.000021   0.000000
    15  H    0.000000   0.000000   0.000000   0.000000  -0.000044  -0.000001
    16  O    0.002508  -0.000282   0.000389   0.000055   0.026945  -0.003450
    17  N    0.000076   0.000012   0.000299  -0.000119   0.268383  -0.084448
    18  H    0.000056  -0.000002   0.000079  -0.000036  -0.017457  -0.000010
    19  H    0.000000   0.000000   0.000000   0.000000  -0.000002   0.000000
    20  H    0.000000   0.000000   0.000000   0.000000   0.000030   0.000005
    21  H    0.000000   0.000000   0.000000   0.000000   0.000035  -0.000017
    22  N    0.000000   0.000000   0.000000   0.000000  -0.000031   0.000004
    23  N    0.292765  -0.020765  -0.047624  -0.052312   0.000426   0.000001
    24  H   -0.025140  -0.010417   0.001198   0.003381  -0.000198  -0.000007
    25  C    4.813905   0.407235   0.403508   0.385123  -0.000103  -0.000002
    26  H    0.407235   0.535820  -0.019946  -0.014483   0.000007   0.000000
    27  H    0.403508  -0.019946   0.611244  -0.068932  -0.000015   0.000000
    28  H    0.385123  -0.014483  -0.068932   0.632914   0.000026   0.000001
    29  C   -0.000103   0.000007  -0.000015   0.000026   4.659484   0.299723
    30  C   -0.000002   0.000000   0.000000   0.000001   0.299723   4.996148
    31  H    0.000001   0.000000  -0.000001   0.000000  -0.057048   0.400187
    32  H   -0.000004   0.000000   0.000002  -0.000001  -0.024213   0.382475
    33  H    0.000000   0.000000   0.000000   0.000000  -0.039226   0.393888
    34  O   -0.000008   0.000000   0.000000  -0.000003   0.687542  -0.066132
              31         32         33         34
     1  C   -0.000177   0.000744   0.000177  -0.003627
     2  C    0.002887  -0.001195  -0.001162   0.007848
     3  H    0.000024   0.000006   0.000022  -0.000469
     4  C   -0.000303  -0.000022   0.000144  -0.003266
     5  H   -0.000006  -0.000002  -0.000002   0.001288
     6  H    0.000014  -0.000100  -0.000047   0.012185
     7  C    0.000020   0.000014   0.000034  -0.009376
     8  H    0.000000   0.000000   0.000000  -0.000104
     9  H    0.000004   0.000001   0.000002  -0.000213
    10  C   -0.000248  -0.000008   0.000038   0.011150
    11  H    0.000633   0.000081  -0.000235  -0.012892
    12  H   -0.000086  -0.000008   0.000097   0.014768
    13  C   -0.000005   0.000001  -0.000017   0.001267
    14  H    0.000000   0.000000   0.000000   0.000009
    15  H    0.000001   0.000000   0.000000  -0.000052
    16  O   -0.000019   0.006641   0.000261  -0.004608
    17  N    0.009752  -0.001967   0.007769  -0.124106
    18  H   -0.004284  -0.000756   0.000164   0.005210
    19  H    0.000000   0.000000   0.000000  -0.000005
    20  H   -0.000007   0.000000   0.000015   0.000151
    21  H    0.000001   0.000000   0.000008  -0.000002
    22  N    0.000002   0.000000  -0.000004  -0.000116
    23  N   -0.000004   0.000043   0.000004  -0.000091
    24  H    0.000001   0.000009  -0.000001   0.000020
    25  C    0.000001  -0.000004   0.000000  -0.000008
    26  H    0.000000   0.000000   0.000000   0.000000
    27  H   -0.000001   0.000002   0.000000   0.000000
    28  H    0.000000  -0.000001   0.000000  -0.000003
    29  C   -0.057048  -0.024213  -0.039226   0.687542
    30  C    0.400187   0.382475   0.393888  -0.066132
    31  H    0.599043  -0.030264  -0.027108   0.002194
    32  H   -0.030264   0.523298  -0.010272  -0.000507
    33  H   -0.027108  -0.010272   0.550684   0.007330
    34  O    0.002194  -0.000507   0.007330   7.853969
 Mulliken charges:
               1
     1  C    0.273775
     2  C   -0.134623
     3  H    0.227555
     4  C   -0.392611
     5  H    0.219051
     6  H    0.225600
     7  C   -0.331328
     8  H    0.165319
     9  H    0.186872
    10  C   -0.345599
    11  H    0.187953
    12  H    0.209077
    13  C   -0.165326
    14  H    0.171525
    15  H    0.170437
    16  O   -0.355609
    17  N   -0.176185
    18  H    0.119280
    19  H    0.144232
    20  H    0.147329
    21  H    0.151838
    22  N    0.222216
    23  N   -0.133646
    24  H    0.121436
    25  C   -0.229295
    26  H    0.117636
    27  H    0.123123
    28  H    0.124862
    29  C    0.278366
    30  C   -0.322140
    31  H    0.104793
    32  H    0.156005
    33  H    0.117437
    34  O   -0.379354
 Sum of Mulliken charges =   1.00000
 Mulliken charges with hydrogens summed into heavy atoms:
               1
     1  C    0.273775
     2  C    0.092932
     4  C    0.052040
     7  C    0.020863
    10  C    0.051430
    13  C    0.176636
    16  O   -0.355609
    17  N   -0.056905
    22  N    0.665615
    23  N   -0.012210
    25  C    0.136326
    29  C    0.278366
    30  C    0.056095
    34  O   -0.379354
 Electronic spatial extent (au):  <R**2>=           3666.5419
 Charge=              1.0000 electrons
 Dipole moment (field-independent basis, Debye):
    X=             14.6123    Y=             -4.6683    Z=             -3.7406  Tot=             15.7894
 Quadrupole moment (field-independent basis, Debye-Ang):
   XX=             16.4411   YY=            -72.3249   ZZ=            -82.0223
   XY=              2.7505   XZ=              1.7376   YZ=             -6.2519
 Traceless Quadrupole moment (field-independent basis, Debye-Ang):
   XX=             62.4098   YY=            -26.3562   ZZ=            -36.0536
   XY=              2.7505   XZ=              1.7376   YZ=             -6.2519
 Octapole moment (field-independent basis, Debye-Ang**2):
  XXX=            376.7657  YYY=             11.3221  ZZZ=             -5.0551  XYY=              5.5608
  XXY=            -64.5941  XXZ=             -7.3296  XZZ=             11.4202  YZZ=             -1.4280
  YYZ=            -11.7357  XYZ=              1.5752
 Hexadecapole moment (field-independent basis, Debye-Ang**3):
 XXXX=           -501.6447 YYYY=          -1277.3289 ZZZZ=           -254.5251 XXXY=             16.3978
 XXXZ=            -45.4712 YYYX=              4.3393 YYYZ=            -13.5294 ZZZX=              4.2190
 ZZZY=             -5.9895 XXYY=           -629.3208 XXZZ=           -485.9827 YYZZ=           -274.4542
 XXYZ=             -6.0740 YYXZ=              7.9007 ZZXY=             -5.9843
 N-N= 9.921747455080D+02 E-N=-3.530092846694D+03  KE= 6.644797652885D+02
 Calculating spin-rotation constants.
 Leave Link  601 at Sun Sep 29 06:59:40 2013, MaxMem= 17179869184 cpu:       242.6
 (Enter /system/software/linux-x86_64/gaussian/g09/D.01__pgi_12.10__atlas/l9999.exe)

 Test job not archived.
 1\1\GINC-CARIBOU\SP\RM06\Gen\C9H20N3O2(1+)\KUPROV\29-Sep-2013\0\\#P Ge
 om=AllCheck Guess=TCheck SCRF=Check GenChk RM06/ChkBas NMR=ReadFC IOp(
 3/6=22)\\J-coupling calculation 1\\1,1\C,0,5.8410358883,-1.1592847996,
 -0.1763839591\C,0,4.3633835935,-1.0769779746,0.2385091929\H,0,4.037208
 2502,-2.0495431621,0.624585324\C,0,3.5206546425,-0.7575097807,-0.99302
 20772\H,0,3.751080068,-1.5221473191,-1.7377236047\H,0,3.8467422981,0.1
 943362892,-1.4126443072\C,0,2.0137293028,-0.7503687007,-0.7779860718\H
 ,0,1.5330357818,-0.8344148224,-1.7581356135\H,0,1.7086147123,-1.638002
 2192,-0.2120470743\C,0,1.4956440113,0.5033859502,-0.0916418179\H,0,1.8
 0577496,0.5091233217,0.9583008376\H,0,1.9652317104,1.3801412945,-0.548
 8949637\C,0,-0.0001328679,0.6159799388,-0.1849549825\H,0,-0.3571289622
 ,0.6359680462,-1.2144509485\H,0,-0.5316087547,-0.16853712,0.3532021618
 \O,0,6.5891216477,-0.2333011621,0.0413583647\N,0,4.2519106527,-0.13999
 44451,1.349172395\H,0,4.7042265874,-0.5051547762,2.1749996653\H,0,-1.4
 252337189,2.0952291301,0.3951201187\H,0,-0.1314994847,1.9663454492,1.4
 177067955\H,0,0.0532085325,2.7049973098,-0.0343255595\N,0,-0.419953539
 7,1.9333582087,0.4392147832\N,0,6.2422407353,-2.2861763599,-0.81123427
 91\H,0,7.2188331175,-2.2702583626,-1.0622589616\C,0,5.5322714756,-3.53
 9448927,-0.9317362721\H,0,6.1544489727,-4.2378656775,-1.4846028482\H,0
 ,5.3128523538,-3.9908470258,0.0389723394\H,0,4.597843944,-3.4350583868
 ,-1.4860116856\C,0,4.4624102013,1.222239761,1.2063416341\C,0,5.1467366
 302,1.8626836848,2.3755125392\H,0,4.8405847663,1.4300883992,3.32867473
 31\H,0,6.2196929571,1.6957689467,2.2612519747\H,0,4.9593038013,2.93248
 06472,2.3745441566\O,0,4.0839931137,1.8524824842,0.2440551405\\Version
 =EM64L-G09RevD.01\State=1-A\HF=-669.2783677\RMSD=2.839e-09\Dipole=-6.1
 258067,0.7741928,0.6813674\Quadrupole=26.7349323,-6.9216572,-19.813275
 1,-31.9100832,-2.2598816,7.3625047\PG=C01 [X(C9H20N3O2)]\\@


 I CLAIM NOT TO HAVE CONTROLLED EVENTS,
 BUT CONFESS PLAINLY THAT EVENTS HAVE CONTROLLED ME.

                                         A. LINCOLN
 Job cpu time:       8 days  7 hours  8 minutes 10.8 seconds.
 File lengths (MBytes):  RWF=   2864 Int=      0 D2E=      0 Chk=     67 Scr=      1
 Normal termination of Gaussian 09 at Sun Sep 29 06:59:42 2013.
