 Entering Gaussian System, Link 0=g09
 Input=methionine.com
 Output=methionine.log
 Initial command:
 /system/software/linux-x86_64/gaussian/g09/D.01__pgi_12.10__atlas/l1.exe "/export/home/spin_dynamics/kuprov/zenawi/Gau-7288.inp" -scrdir="/export/home/spin_dynamics/kuprov/zenawi/"
 Entering Link 1 = /system/software/linux-x86_64/gaussian/g09/D.01__pgi_12.10__atlas/l1.exe PID=      7290.
  
 Copyright (c) 1988,1990,1992,1993,1995,1998,2003,2009,2013,
            Gaussian, Inc.  All Rights Reserved.
  
 This is part of the Gaussian(R) 09 program.  It is based on
 the Gaussian(R) 03 system (copyright 2003, Gaussian, Inc.),
 the Gaussian(R) 98 system (copyright 1998, Gaussian, Inc.),
 the Gaussian(R) 94 system (copyright 1995, Gaussian, Inc.),
 the Gaussian 92(TM) system (copyright 1992, Gaussian, Inc.),
 the Gaussian 90(TM) system (copyright 1990, Gaussian, Inc.),
 the Gaussian 88(TM) system (copyright 1988, Gaussian, Inc.),
 the Gaussian 86(TM) system (copyright 1986, Carnegie Mellon
 University), and the Gaussian 82(TM) system (copyright 1983,
 Carnegie Mellon University). Gaussian is a federally registered
 trademark of Gaussian, Inc.
  
 This software contains proprietary and confidential information,
 including trade secrets, belonging to Gaussian, Inc.
  
 This software is provided under written license and may be
 used, copied, transmitted, or stored only in accord with that
 written license.
  
 The following legend is applicable only to US Government
 contracts under FAR:
  
                    RESTRICTED RIGHTS LEGEND
  
 Use, reproduction and disclosure by the US Government is
 subject to restrictions as set forth in subparagraphs (a)
 and (c) of the Commercial Computer Software - Restricted
 Rights clause in FAR 52.227-19.
  
 Gaussian, Inc.
 340 Quinnipiac St., Bldg. 40, Wallingford CT 06492
  
  
 ---------------------------------------------------------------
 Warning -- This program may not be used in any manner that
 competes with the business of Gaussian, Inc. or will provide
 assistance to any competitor of Gaussian, Inc.  The licensee
 of this program is prohibited from giving any competitor of
 Gaussian, Inc. access to this program.  By using this program,
 the user acknowledges that Gaussian, Inc. is engaged in the
 business of creating and licensing software in the field of
 computational chemistry and represents and warrants to the
 licensee that it is not a competitor of Gaussian, Inc. and that
 it will not use this program in any manner prohibited above.
 ---------------------------------------------------------------
  

 Cite this work as:
 Gaussian 09, Revision D.01,
 M. J. Frisch, G. W. Trucks, H. B. Schlegel, G. E. Scuseria, 
 M. A. Robb, J. R. Cheeseman, G. Scalmani, V. Barone, B. Mennucci, 
 G. A. Petersson, H. Nakatsuji, M. Caricato, X. Li, H. P. Hratchian, 
 A. F. Izmaylov, J. Bloino, G. Zheng, J. L. Sonnenberg, M. Hada, 
 M. Ehara, K. Toyota, R. Fukuda, J. Hasegawa, M. Ishida, T. Nakajima, 
 Y. Honda, O. Kitao, H. Nakai, T. Vreven, J. A. Montgomery, Jr., 
 J. E. Peralta, F. Ogliaro, M. Bearpark, J. J. Heyd, E. Brothers, 
 K. N. Kudin, V. N. Staroverov, T. Keith, R. Kobayashi, J. Normand, 
 K. Raghavachari, A. Rendell, J. C. Burant, S. S. Iyengar, J. Tomasi, 
 M. Cossi, N. Rega, J. M. Millam, M. Klene, J. E. Knox, J. B. Cross, 
 V. Bakken, C. Adamo, J. Jaramillo, R. Gomperts, R. E. Stratmann, 
 O. Yazyev, A. J. Austin, R. Cammi, C. Pomelli, J. W. Ochterski, 
 R. L. Martin, K. Morokuma, V. G. Zakrzewski, G. A. Voth, 
 P. Salvador, J. J. Dannenberg, S. Dapprich, A. D. Daniels, 
 O. Farkas, J. B. Foresman, J. V. Ortiz, J. Cioslowski, 
 and D. J. Fox, Gaussian, Inc., Wallingford CT, 2013.
 
 ******************************************
 Gaussian 09:  EM64L-G09RevD.01 24-Apr-2013
                27-Sep-2013 
 ******************************************
 %Chk=methionine.chk
 %Mem=128GB
 %NProcShared=24
 Will use up to   24 processors via shared memory.
 ------------------------------------------------------------
 #p opt=tight m06/cc-pvtz scf=tight integral=(grid=ultrafine)
 ------------------------------------------------------------
 1/7=10,14=-1,18=20,19=15,26=4,38=1/1,3;
 2/9=110,12=2,17=6,18=5,40=1/2;
 3/5=16,6=1,11=2,16=1,25=1,30=1,71=1,74=-54,75=-5/1,2,3;
 4//1;
 5/5=2,32=2,38=5/2;
 6/7=2,8=2,9=2,10=2,28=1/1;
 7//1,2,3,16;
 1/7=10,14=-1,18=20,19=15,26=4/3(2);
 2/9=110/2;
 99//99;
 2/9=110/2;
 3/5=16,6=1,11=2,16=1,25=1,30=1,71=1,74=-54,75=-5/1,2,3;
 4/5=5,16=3,69=1/1;
 5/5=2,32=2,38=5/2;
 7//1,2,3,16;
 1/7=10,14=-1,18=20,19=15,26=4/3(-5);
 2/9=110/2;
 6/7=2,8=2,9=2,10=2,19=2,28=1/1;
 99/9=1/99;
 Leave Link    1 at Fri Sep 27 16:05:55 2013, MaxMem= 17179869184 cpu:         2.8
 (Enter /system/software/linux-x86_64/gaussian/g09/D.01__pgi_12.10__atlas/l101.exe)
 ---------------------
 Geometry optimisation
 ---------------------
 Symbolic Z-matrix:
 Charge =  0 Multiplicity = 1
 C                    -3.50045   3.65299  -1.1611 
 H                    -4.04221   2.89042  -0.64159 
 H                    -2.97464   3.21831  -1.9854 
 H                    -4.184     4.39196  -1.52383 
 C                    -1.19967   3.18601   0.55279 
 H                    -0.67386   2.75134  -0.27151 
 H                    -1.74144   2.42345   1.0723 
 C                    -0.19291   3.84557   1.51353 
 H                    -0.71873   4.28025   2.33784 
 H                     0.34885   4.60814   0.99402 
 C                     0.79089   2.782     2.0356 
 H                     1.31671   2.34733   1.21129 
 C                     1.79765   3.44156   2.99634 
 S                    -2.3368    4.41533  -0.05063 
 N                     0.0466    1.73437   2.74931 
 H                     0.68543   1.04374   3.08832 
 O                     2.12055   4.64756   2.83861 
 C                    -0.67578   2.33154   3.88177 
 C                    -0.94595   1.49825   5.14836 
 H                    -0.16388   0.7792    5.27577 
 H                    -0.97839   2.14469   6.00039 
 H                    -1.88329   0.99189   5.04894 
 N                     2.38145   2.66236   4.09766 
 H                     1.80451   2.74914   4.90982 
 C                     3.72824   3.16986   4.39684 
 H                     3.66627   4.19931   4.68197 
 H                     4.15318   2.60268   5.19848 
 H                     4.34557   3.077     3.52783 
 O                    -1.07342   3.52366   3.81623 
 
 NAtoms=     29 NQM=       29 NQMF=       0 NMMI=      0 NMMIF=      0
                NMic=       0 NMicF=      0.
                    Isotopes and Nuclear Properties:
 (Nuclear quadrupole moments (NQMom) in fm**2, nuclear magnetic moments (NMagM)
  in nuclear magnetons)

  Atom         1           2           3           4           5           6           7           8           9          10
 IAtWgt=          12           1           1           1          12           1           1          12           1           1
 AtmWgt=  12.0000000   1.0078250   1.0078250   1.0078250  12.0000000   1.0078250   1.0078250  12.0000000   1.0078250   1.0078250
 NucSpn=           0           1           1           1           0           1           1           0           1           1
 AtZEff=   0.0000000   0.0000000   0.0000000   0.0000000   0.0000000   0.0000000   0.0000000   0.0000000   0.0000000   0.0000000
 NQMom=    0.0000000   0.0000000   0.0000000   0.0000000   0.0000000   0.0000000   0.0000000   0.0000000   0.0000000   0.0000000
 NMagM=    0.0000000   2.7928460   2.7928460   2.7928460   0.0000000   2.7928460   2.7928460   0.0000000   2.7928460   2.7928460
 AtZNuc=   6.0000000   1.0000000   1.0000000   1.0000000   6.0000000   1.0000000   1.0000000   6.0000000   1.0000000   1.0000000

  Atom        11          12          13          14          15          16          17          18          19          20
 IAtWgt=          12           1          12          32          14           1          16          12          12           1
 AtmWgt=  12.0000000   1.0078250  12.0000000  31.9720718  14.0030740   1.0078250  15.9949146  12.0000000  12.0000000   1.0078250
 NucSpn=           0           1           0           0           2           1           0           0           0           1
 AtZEff=   0.0000000   0.0000000   0.0000000   0.0000000   0.0000000   0.0000000   0.0000000   0.0000000   0.0000000   0.0000000
 NQMom=    0.0000000   0.0000000   0.0000000   0.0000000   2.0440000   0.0000000   0.0000000   0.0000000   0.0000000   0.0000000
 NMagM=    0.0000000   2.7928460   0.0000000   0.0000000   0.4037610   2.7928460   0.0000000   0.0000000   0.0000000   2.7928460
 AtZNuc=   6.0000000   1.0000000   6.0000000  16.0000000   7.0000000   1.0000000   8.0000000   6.0000000   6.0000000   1.0000000

  Atom        21          22          23          24          25          26          27          28          29
 IAtWgt=           1           1          14           1          12           1           1           1          16
 AtmWgt=   1.0078250   1.0078250  14.0030740   1.0078250  12.0000000   1.0078250   1.0078250   1.0078250  15.9949146
 NucSpn=           1           1           2           1           0           1           1           1           0
 AtZEff=   0.0000000   0.0000000   0.0000000   0.0000000   0.0000000   0.0000000   0.0000000   0.0000000   0.0000000
 NQMom=    0.0000000   0.0000000   2.0440000   0.0000000   0.0000000   0.0000000   0.0000000   0.0000000   0.0000000
 NMagM=    2.7928460   2.7928460   0.4037610   2.7928460   0.0000000   2.7928460   2.7928460   2.7928460   0.0000000
 AtZNuc=   1.0000000   1.0000000   7.0000000   1.0000000   6.0000000   1.0000000   1.0000000   1.0000000   8.0000000
 Leave Link  101 at Fri Sep 27 16:05:58 2013, MaxMem= 17179869184 cpu:        42.4
 (Enter /system/software/linux-x86_64/gaussian/g09/D.01__pgi_12.10__atlas/l103.exe)

 GradGradGradGradGradGradGradGradGradGradGradGradGradGradGradGradGradGrad
 Berny optimization.
 Initialization pass.
                           ----------------------------
                           !    Initial Parameters    !
                           ! (Angstroms and Degrees)  !
 --------------------------                            --------------------------
 ! Name  Definition              Value          Derivative Info.                !
 --------------------------------------------------------------------------------
 ! R1    R(1,2)                  1.07           estimate D2E/DX2                !
 ! R2    R(1,3)                  1.07           estimate D2E/DX2                !
 ! R3    R(1,4)                  1.07           estimate D2E/DX2                !
 ! R4    R(1,14)                 1.78           estimate D2E/DX2                !
 ! R5    R(5,6)                  1.07           estimate D2E/DX2                !
 ! R6    R(5,7)                  1.07           estimate D2E/DX2                !
 ! R7    R(5,8)                  1.54           estimate D2E/DX2                !
 ! R8    R(5,14)                 1.78           estimate D2E/DX2                !
 ! R9    R(8,9)                  1.07           estimate D2E/DX2                !
 ! R10   R(8,10)                 1.07           estimate D2E/DX2                !
 ! R11   R(8,11)                 1.54           estimate D2E/DX2                !
 ! R12   R(11,12)                1.07           estimate D2E/DX2                !
 ! R13   R(11,13)                1.54           estimate D2E/DX2                !
 ! R14   R(11,15)                1.47           estimate D2E/DX2                !
 ! R15   R(13,17)                1.2584         estimate D2E/DX2                !
 ! R16   R(13,23)                1.47           estimate D2E/DX2                !
 ! R17   R(15,16)                1.0            estimate D2E/DX2                !
 ! R18   R(15,18)                1.47           estimate D2E/DX2                !
 ! R19   R(18,19)                1.54           estimate D2E/DX2                !
 ! R20   R(18,29)                1.2584         estimate D2E/DX2                !
 ! R21   R(19,20)                1.07           estimate D2E/DX2                !
 ! R22   R(19,21)                1.07           estimate D2E/DX2                !
 ! R23   R(19,22)                1.07           estimate D2E/DX2                !
 ! R24   R(23,24)                1.0            estimate D2E/DX2                !
 ! R25   R(23,25)                1.47           estimate D2E/DX2                !
 ! R26   R(25,26)                1.07           estimate D2E/DX2                !
 ! R27   R(25,27)                1.07           estimate D2E/DX2                !
 ! R28   R(25,28)                1.07           estimate D2E/DX2                !
 ! A1    A(2,1,3)              109.4712         estimate D2E/DX2                !
 ! A2    A(2,1,4)              109.4712         estimate D2E/DX2                !
 ! A3    A(2,1,14)             109.4712         estimate D2E/DX2                !
 ! A4    A(3,1,4)              109.4712         estimate D2E/DX2                !
 ! A5    A(3,1,14)             109.4712         estimate D2E/DX2                !
 ! A6    A(4,1,14)             109.4712         estimate D2E/DX2                !
 ! A7    A(6,5,7)              109.4712         estimate D2E/DX2                !
 ! A8    A(6,5,8)              109.4712         estimate D2E/DX2                !
 ! A9    A(6,5,14)             109.4712         estimate D2E/DX2                !
 ! A10   A(7,5,8)              109.4712         estimate D2E/DX2                !
 ! A11   A(7,5,14)             109.4712         estimate D2E/DX2                !
 ! A12   A(8,5,14)             109.4712         estimate D2E/DX2                !
 ! A13   A(5,8,9)              109.4712         estimate D2E/DX2                !
 ! A14   A(5,8,10)             109.4712         estimate D2E/DX2                !
 ! A15   A(5,8,11)             109.4712         estimate D2E/DX2                !
 ! A16   A(9,8,10)             109.4712         estimate D2E/DX2                !
 ! A17   A(9,8,11)             109.4712         estimate D2E/DX2                !
 ! A18   A(10,8,11)            109.4712         estimate D2E/DX2                !
 ! A19   A(8,11,12)            109.4712         estimate D2E/DX2                !
 ! A20   A(8,11,13)            109.4712         estimate D2E/DX2                !
 ! A21   A(8,11,15)            109.4712         estimate D2E/DX2                !
 ! A22   A(12,11,13)           109.4712         estimate D2E/DX2                !
 ! A23   A(12,11,15)           109.4712         estimate D2E/DX2                !
 ! A24   A(13,11,15)           109.4712         estimate D2E/DX2                !
 ! A25   A(11,13,17)           120.0            estimate D2E/DX2                !
 ! A26   A(11,13,23)           120.0            estimate D2E/DX2                !
 ! A27   A(17,13,23)           120.0            estimate D2E/DX2                !
 ! A28   A(1,14,5)             109.4712         estimate D2E/DX2                !
 ! A29   A(11,15,16)           109.4712         estimate D2E/DX2                !
 ! A30   A(11,15,18)           109.4712         estimate D2E/DX2                !
 ! A31   A(16,15,18)           109.4712         estimate D2E/DX2                !
 ! A32   A(15,18,19)           120.0            estimate D2E/DX2                !
 ! A33   A(15,18,29)           120.0            estimate D2E/DX2                !
 ! A34   A(19,18,29)           120.0            estimate D2E/DX2                !
 ! A35   A(18,19,20)           109.4712         estimate D2E/DX2                !
 ! A36   A(18,19,21)           109.4712         estimate D2E/DX2                !
 ! A37   A(18,19,22)           109.4712         estimate D2E/DX2                !
 ! A38   A(20,19,21)           109.4712         estimate D2E/DX2                !
 ! A39   A(20,19,22)           109.4712         estimate D2E/DX2                !
 ! A40   A(21,19,22)           109.4712         estimate D2E/DX2                !
 ! A41   A(13,23,24)           109.4712         estimate D2E/DX2                !
 ! A42   A(13,23,25)           109.4712         estimate D2E/DX2                !
 ! A43   A(24,23,25)           109.4712         estimate D2E/DX2                !
 ! A44   A(23,25,26)           109.4712         estimate D2E/DX2                !
 ! A45   A(23,25,27)           109.4712         estimate D2E/DX2                !
 ! A46   A(23,25,28)           109.4712         estimate D2E/DX2                !
 ! A47   A(26,25,27)           109.4712         estimate D2E/DX2                !
 ! A48   A(26,25,28)           109.4712         estimate D2E/DX2                !
 ! A49   A(27,25,28)           109.4712         estimate D2E/DX2                !
 ! D1    D(2,1,14,5)            60.0            estimate D2E/DX2                !
 ! D2    D(3,1,14,5)           -60.0            estimate D2E/DX2                !
 ! D3    D(4,1,14,5)           180.0            estimate D2E/DX2                !
 ! D4    D(6,5,8,9)            180.0            estimate D2E/DX2                !
 ! D5    D(6,5,8,10)            60.0            estimate D2E/DX2                !
 ! D6    D(6,5,8,11)           -60.0            estimate D2E/DX2                !
 ! D7    D(7,5,8,9)            -60.0            estimate D2E/DX2                !
 ! D8    D(7,5,8,10)           180.0            estimate D2E/DX2                !
 ! D9    D(7,5,8,11)            60.0            estimate D2E/DX2                !
 ! D10   D(14,5,8,9)            60.0            estimate D2E/DX2                !
 ! D11   D(14,5,8,10)          -60.0            estimate D2E/DX2                !
 ! D12   D(14,5,8,11)          180.0            estimate D2E/DX2                !
 ! D13   D(6,5,14,1)            60.0            estimate D2E/DX2                !
 ! D14   D(7,5,14,1)           -60.0            estimate D2E/DX2                !
 ! D15   D(8,5,14,1)           180.0            estimate D2E/DX2                !
 ! D16   D(5,8,11,12)           60.0            estimate D2E/DX2                !
 ! D17   D(5,8,11,13)          180.0            estimate D2E/DX2                !
 ! D18   D(5,8,11,15)          -60.0            estimate D2E/DX2                !
 ! D19   D(9,8,11,12)          180.0            estimate D2E/DX2                !
 ! D20   D(9,8,11,13)          -60.0            estimate D2E/DX2                !
 ! D21   D(9,8,11,15)           60.0            estimate D2E/DX2                !
 ! D22   D(10,8,11,12)         -60.0            estimate D2E/DX2                !
 ! D23   D(10,8,11,13)          60.0            estimate D2E/DX2                !
 ! D24   D(10,8,11,15)        -180.0            estimate D2E/DX2                !
 ! D25   D(8,11,13,17)         -30.0            estimate D2E/DX2                !
 ! D26   D(8,11,13,23)         150.0            estimate D2E/DX2                !
 ! D27   D(12,11,13,17)         90.0            estimate D2E/DX2                !
 ! D28   D(12,11,13,23)        -90.0            estimate D2E/DX2                !
 ! D29   D(15,11,13,17)       -150.0            estimate D2E/DX2                !
 ! D30   D(15,11,13,23)         30.0            estimate D2E/DX2                !
 ! D31   D(8,11,15,16)         180.0            estimate D2E/DX2                !
 ! D32   D(8,11,15,18)         -60.0            estimate D2E/DX2                !
 ! D33   D(12,11,15,16)         60.0            estimate D2E/DX2                !
 ! D34   D(12,11,15,18)        180.0            estimate D2E/DX2                !
 ! D35   D(13,11,15,16)        -60.0            estimate D2E/DX2                !
 ! D36   D(13,11,15,18)         60.0            estimate D2E/DX2                !
 ! D37   D(11,13,23,24)        -90.0            estimate D2E/DX2                !
 ! D38   D(11,13,23,25)        150.0            estimate D2E/DX2                !
 ! D39   D(17,13,23,24)         90.0            estimate D2E/DX2                !
 ! D40   D(17,13,23,25)        -30.0            estimate D2E/DX2                !
 ! D41   D(11,15,18,19)       -150.0            estimate D2E/DX2                !
 ! D42   D(11,15,18,29)         30.0            estimate D2E/DX2                !
 ! D43   D(16,15,18,19)        -30.0            estimate D2E/DX2                !
 ! D44   D(16,15,18,29)        150.0            estimate D2E/DX2                !
 ! D45   D(15,18,19,20)         30.0            estimate D2E/DX2                !
 ! D46   D(15,18,19,21)        150.0            estimate D2E/DX2                !
 ! D47   D(15,18,19,22)        -90.0            estimate D2E/DX2                !
 ! D48   D(29,18,19,20)       -150.0            estimate D2E/DX2                !
 ! D49   D(29,18,19,21)        -30.0            estimate D2E/DX2                !
 ! D50   D(29,18,19,22)         90.0            estimate D2E/DX2                !
 ! D51   D(13,23,25,26)         60.0            estimate D2E/DX2                !
 ! D52   D(13,23,25,27)        180.0            estimate D2E/DX2                !
 ! D53   D(13,23,25,28)        -60.0            estimate D2E/DX2                !
 ! D54   D(24,23,25,26)        -60.0            estimate D2E/DX2                !
 ! D55   D(24,23,25,27)         60.0            estimate D2E/DX2                !
 ! D56   D(24,23,25,28)       -180.0            estimate D2E/DX2                !
 --------------------------------------------------------------------------------
 Trust Radius=3.00D-01 FncErr=1.00D-07 GrdErr=1.00D-06
 Number of steps in this run=    143 maximum allowed number of steps=    174.
 GradGradGradGradGradGradGradGradGradGradGradGradGradGradGradGradGradGrad

 Leave Link  103 at Fri Sep 27 16:05:58 2013, MaxMem= 17179869184 cpu:         0.8
 (Enter /system/software/linux-x86_64/gaussian/g09/D.01__pgi_12.10__atlas/l202.exe)
                          Input orientation:                          
 ---------------------------------------------------------------------
 Center     Atomic      Atomic             Coordinates (Angstroms)
 Number     Number       Type             X           Y           Z
 ---------------------------------------------------------------------
      1          6           0       -3.500452    3.652987   -1.161095
      2          1           0       -4.042215    2.890423   -0.641586
      3          1           0       -2.974637    3.218312   -1.985399
      4          1           0       -4.184005    4.391960   -1.523827
      5          6           0       -1.199672    3.186014    0.552794
      6          1           0       -0.673857    2.751340   -0.271510
      7          1           0       -1.741435    2.423450    1.072303
      8          6           0       -0.192914    3.845573    1.513533
      9          1           0       -0.718729    4.280247    2.337837
     10          1           0        0.348848    4.608137    0.994024
     11          6           0        0.790890    2.782004    2.035596
     12          1           0        1.316705    2.347330    1.211292
     13          6           0        1.797648    3.441563    2.996336
     14         16           0       -2.336797    4.415334   -0.050630
     15          7           0        0.046599    1.734370    2.749314
     16          1           0        0.685433    1.043741    3.088316
     17          8           0        2.120545    4.647560    2.838606
     18          6           0       -0.675782    2.331539    3.881769
     19          6           0       -0.945947    1.498251    5.148356
     20          1           0       -0.163877    0.779201    5.275768
     21          1           0       -0.978386    2.144692    6.000389
     22          1           0       -1.883290    0.991886    5.048940
     23          7           0        2.381452    2.662356    4.097658
     24          1           0        1.804505    2.749141    4.909816
     25          6           0        3.728238    3.169860    4.396836
     26          1           0        3.666273    4.199305    4.681972
     27          1           0        4.153183    2.602682    5.198479
     28          1           0        4.345571    3.077000    3.527827
     29          8           0       -1.073416    3.523664    3.816230
 ---------------------------------------------------------------------
                    Distance matrix (angstroms):
                    1          2          3          4          5
     1  C    0.000000
     2  H    1.070000   0.000000
     3  H    1.070000   1.747303   0.000000
     4  H    1.070000   1.747303   1.747303   0.000000
     5  C    2.906728   3.097413   3.097413   3.830522   0.000000
     6  H    3.097413   3.391480   2.906728   4.071986   1.070000
     7  H    3.097413   2.906728   3.391480   4.071986   1.070000
     8  C    4.257996   4.513753   4.513753   5.045087   1.540000
     9  H    4.513753   4.674840   4.990711   5.189708   2.148263
    10  H    4.513753   4.990711   4.674840   5.189708   2.148263
    11  C    5.421537   5.526117   5.526117   6.325428   2.514809
    12  H    5.526117   5.696151   5.421537   6.474504   2.732978
    13  C    6.737863   6.902335   6.902335   7.557467   3.875582
    14  S    1.780000   2.362844   2.362844   2.362844   1.780000
    15  N    5.617292   5.436273   5.809257   6.574233   2.912931
    16  H    6.510553   6.298656   6.623252   7.496257   3.817307
    17  O    6.970107   7.292385   7.160633   7.670952   4.287762
    18  C    5.929205   5.666213   6.363550   6.765607   3.476588
    19  C    7.139857   6.711814   7.613452   7.960942   4.902256
    20  H    7.799012   7.383349   8.159301   8.686078   5.401121
    21  H    7.740971   7.352483   8.301235   8.481747   5.550641
    22  H    6.947029   6.375539   7.458548   7.749520   5.049442
    23  N    7.951895   7.985984   8.124061   8.814638   5.066037
    24  H    8.112673   8.063632   8.402637   8.941637   5.310328
    25  C    9.131154   9.265189   9.255475   9.957478   6.249898
    26  H    9.262928   9.459082   9.461388  10.008792   6.461756
    27  H   10.006271  10.067458  10.138685  10.858159   7.111661
    28  H    9.158484   9.368766   9.165210  10.000100   6.293841
    29  O    5.539043   5.393226   6.112838   6.240666   3.283286
                    6          7          8          9         10
     6  H    0.000000
     7  H    1.747303   0.000000
     8  C    2.148263   2.148263   0.000000
     9  H    3.024610   2.468846   1.070000   0.000000
    10  H    2.468846   3.024610   1.070000   1.747303   0.000000
    11  C    2.732978   2.732978   1.540000   2.148263   2.148263
    12  H    2.514809   3.062243   2.148263   3.024610   2.468846
    13  C    4.154945   4.154945   2.514809   2.732978   2.732978
    14  S    2.362844   2.362844   2.714308   2.888108   2.888108
    15  N    3.267823   2.546422   2.457987   2.690081   3.380966
    16  H    4.006495   3.443487   3.331921   3.606919   4.147803
    17  O    4.590987   4.793890   2.784079   2.906401   2.557918
    18  C    4.174442   3.006188   2.852017   2.486571   3.817307
    19  C    5.569489   4.254763   4.391914   3.961079   5.348491
    20  H    5.909459   4.781356   4.853647   4.603979   5.766885
    21  H    6.308525   4.994596   4.862287   4.247624   5.735312
    22  H    5.732853   4.228847   4.847680   4.418099   5.873845
    23  N    5.332210   5.119380   3.834718   3.914801   4.189282
    24  H    5.743555   5.235100   4.089814   3.914853   4.572551
    25  C    6.430168   6.444142   4.913803   5.024734   5.006799
    26  H    6.743168   6.739931   5.005742   4.972903   4.977289
    27  H    7.296794   7.197498   5.831995   5.893473   6.014337
    28  H    6.303624   6.596087   5.024533   5.339571   4.973764
    29  O    4.179205   3.030818   2.486226   1.698195   3.341222
                   11         12         13         14         15
    11  C    0.000000
    12  H    1.070000   0.000000
    13  C    1.540000   2.148263   0.000000
    14  S    4.099089   4.383739   5.227415   0.000000
    15  N    1.470000   2.086720   2.457987   4.550586   0.000000
    16  H    2.034920   2.370879   2.644813   5.509492   1.000000
    17  O    2.427572   2.930080   1.258400   5.316908   3.577136
    18  C    2.400500   3.331921   2.852017   4.750256   1.470000
    19  C    3.788654   4.619632   3.991862   6.121543   2.606971
    20  H    3.927023   4.601208   4.016411   6.805407   2.709173
    21  H    4.388176   5.314504   4.290988   6.604236   3.433431
    22  H    4.408628   5.177329   4.874772   6.158837   3.092577
    23  N    2.606971   3.092577   1.470000   6.522507   2.851443
    24  H    3.047890   3.752130   2.034920   6.673275   2.964416
    25  C    3.788654   4.079183   2.400500   7.623372   4.281287
    26  H    4.156906   4.582128   2.628174   7.647289   4.786764
    27  H    4.619632   4.899844   3.331921   8.541586   4.859671
    28  H    3.866462   3.882368   2.628174   7.697437   4.570546
    29  O    2.682602   3.725875   2.986968   4.164590   2.365231
                   16         17         18         19         20
    16  H    0.000000
    17  O    3.887083   0.000000
    18  C    2.034920   3.777775   0.000000
    19  C    2.666785   4.965528   1.540000   0.000000
    20  H    2.361410   5.111022   2.148263   1.070000   0.000000
    21  H    3.529952   5.085725   2.148263   1.070000   1.747303
    22  H    3.231884   5.854931   2.148263   1.070000   1.747303
    23  N    2.552482   2.365231   3.082649   3.678409   3.378301
    24  H    2.734698   2.827328   2.717185   3.030943   2.808756
    25  C    3.935895   2.682602   4.512590   5.020663   4.651486
    26  H    4.624146   2.447081   4.793987   5.365238   5.169115
    27  H    4.348376   3.725875   5.012599   5.217606   4.687010
    28  H    4.209978   2.809346   5.088710   5.754887   5.354465
    29  O    3.126249   3.524242   1.258400   2.427572   3.238764
                   21         22         23         24         25
    21  H    0.000000
    22  H    1.747303   0.000000
    23  N    3.895751   4.677973   0.000000
    24  H    3.049458   4.087436   1.000000   0.000000
    25  C    5.076875   6.054589   1.470000   2.034920   0.000000
    26  H    5.247143   6.420268   2.086720   2.370879   1.070000
    27  H    5.214002   6.249483   2.086720   2.370879   1.070000
    28  H    5.943676   6.742417   2.086720   2.911082   1.070000
    29  O    2.584792   2.930080   3.571717   3.174625   4.849553
                   26         27         28         29
    26  H    0.000000
    27  H    1.747303   0.000000
    28  H    1.747303   1.747303   0.000000
    29  O    4.865249   5.484174   5.445007   0.000000
 Stoichiometry    C8H16N2O2S
 Framework group  C1[X(C8H16N2O2S)]
 Deg. of freedom    81
 Full point group                 C1      NOp   1
 Largest Abelian subgroup         C1      NOp   1
 Largest concise Abelian subgroup C1      NOp   1
                         Standard orientation:                         
 ---------------------------------------------------------------------
 Center     Atomic      Atomic             Coordinates (Angstroms)
 Number     Number       Type             X           Y           Z
 ---------------------------------------------------------------------
      1          6           0       -4.851618    0.015098    0.378396
      2          1           0       -4.766322    1.055911    0.611492
      3          1           0       -4.970994   -0.544306    1.282673
      4          1           0       -5.701881   -0.140657   -0.252234
      5          6           0       -1.966014   -0.267536    0.584486
      6          1           0       -2.085389   -0.826940    1.488763
      7          1           0       -1.880718    0.773276    0.817583
      8          6           0       -0.693223   -0.736234   -0.144846
      9          1           0       -0.573848   -0.176830   -1.049123
     10          1           0       -0.778519   -1.777046   -0.377942
     11          6           0        0.530520   -0.512063    0.762789
     12          1           0        0.411145   -1.071467    1.667066
     13          6           0        1.803311   -0.980760    0.033457
     14         16           0       -3.380470   -0.526643   -0.464598
     15          7           0        0.647702    0.917839    1.083024
     16          1           0        1.442340    1.063404    1.672398
     17          8           0        1.739822   -1.918565   -0.803240
     18          6           0        0.811704    1.686366   -0.159300
     19          6           0        1.611701    3.002242   -0.150778
     20          1           0        2.368736    2.954524    0.603889
     21          1           0        2.069779    3.147357   -1.106815
     22          1           0        0.952432    3.819123    0.056514
     23          7           0        3.092413   -0.332656    0.314664
     24          1           0        3.220796    0.438563   -0.308825
     25          6           0        4.180368   -1.302776    0.124604
     26          1           0        4.171324   -1.655462   -0.885560
     27          1           0        5.118694   -0.831027    0.329292
     28          1           0        4.042998   -2.127981    0.791737
     29          8           0        0.298385    1.269007   -1.229761
 ---------------------------------------------------------------------
 Rotational constants (GHZ):      1.1769948      0.3504141      0.2980335
 Leave Link  202 at Fri Sep 27 16:05:59 2013, MaxMem= 17179869184 cpu:         1.3
 (Enter /system/software/linux-x86_64/gaussian/g09/D.01__pgi_12.10__atlas/l301.exe)
 Standard basis: CC-pVTZ (5D, 7F)
 Ernie: Thresh=  0.10000D-02 Tol=  0.10000D-05 Strict=F.
 Ernie:  49 primitive shells out of 500 were deleted.
 There are   699 symmetry adapted cartesian basis functions of A   symmetry.
 There are   618 symmetry adapted basis functions of A   symmetry.
   618 basis functions,   990 primitive gaussians,   699 cartesian basis functions
    55 alpha electrons       55 beta electrons
       nuclear repulsion energy       948.5231376692 Hartrees.
 IExCor= 4235 DFT=T Ex+Corr=M06 ExCW=0 ScaHFX=  0.270000
 ScaDFX=  1.000000  1.000000  1.000000  1.000000 ScalE2=  1.000000  1.000000
 IRadAn=      5 IRanWt=     -1 IRanGd=            0 ICorTp=0 IEmpDi=  4
 NAtoms=   29 NActive=   29 NUniq=   29 SFac= 1.00D+00 NAtFMM=   60 NAOKFM=F Big=F
 Integral buffers will be    131072 words long.
 Raffenetti 2 integral format.
 Two-electron integral symmetry is turned on.
 Leave Link  301 at Fri Sep 27 16:06:00 2013, MaxMem= 17179869184 cpu:         3.8
 (Enter /system/software/linux-x86_64/gaussian/g09/D.01__pgi_12.10__atlas/l302.exe)
 NPDir=0 NMtPBC=     1 NCelOv=     1 NCel=       1 NClECP=     1 NCelD=      1
         NCelK=      1 NCelE2=     1 NClLst=     1 CellRange=     0.0.
 One-electron integrals computed using PRISM.
 NBasis=   618 RedAO= T EigKep=  1.66D-04  NBF=   618
 NBsUse=   618 1.00D-06 EigRej= -1.00D+00 NBFU=   618
 Precomputing XC quadrature grid using
 IXCGrd= 4 IRadAn=           5 IRanWt=          -1 IRanGd=           0 AccXCQ= 0.00D+00.
 Generated NRdTot=       0 NPtTot=           0 NUsed=           0 NTot=          32
 NSgBfM=   694   694   694   694   694 MxSgAt=    29 MxSgA2=    29.
 Leave Link  302 at Fri Sep 27 16:06:03 2013, MaxMem= 17179869184 cpu:        45.2
 (Enter /system/software/linux-x86_64/gaussian/g09/D.01__pgi_12.10__atlas/l303.exe)
 DipDrv:  MaxL=1.
 Leave Link  303 at Fri Sep 27 16:06:04 2013, MaxMem= 17179869184 cpu:         4.8
 (Enter /system/software/linux-x86_64/gaussian/g09/D.01__pgi_12.10__atlas/l401.exe)
 ExpMin= 1.03D-01 ExpMax= 3.74D+05 ExpMxC= 1.18D+03 IAcc=3 IRadAn=         5 AccDes= 0.00D+00
 Harris functional with IExCor= 1009 and IRadAn=       5 diagonalized for initial guess.
 HarFok:  IExCor= 1009 AccDes= 0.00D+00 IRadAn=         5 IDoV= 1 UseB2=F ITyADJ=14
 ICtDFT=  3500011 ScaDFX=  1.000000  1.000000  1.000000  1.000000
 FoFCou: FMM=F IPFlag=           0 FMFlag=      100000 FMFlg1=           0
         NFxFlg=           0 DoJE=T BraDBF=F KetDBF=T FulRan=T
         wScrn=  0.000000 ICntrl=     500 IOpCl=  0 I1Cent=   200000004 NGrid=           0
         NMat0=    1 NMatS0=      1 NMatT0=    0 NMatD0=    1 NMtDS0=    0 NMtDT0=    0
 Petite list used in FoFCou.
 Harris En= -972.160018781816    
 JPrj=0 DoOrth=F DoCkMO=F.
 Leave Link  401 at Fri Sep 27 16:06:10 2013, MaxMem= 17179869184 cpu:       130.0
 (Enter /system/software/linux-x86_64/gaussian/g09/D.01__pgi_12.10__atlas/l502.exe)
 Closed shell SCF:
 Using DIIS extrapolation, IDIIS=  1040.
 Integral symmetry usage will be decided dynamically.
 IVT=     1506227 IEndB=     1506227 NGot= 17179869184 MDV= 17178868898
 LenX= 17178868898 LenY= 17178379598
 Requested convergence on RMS density matrix=1.00D-08 within 128 cycles.
 Requested convergence on MAX density matrix=1.00D-06.
 Requested convergence on             energy=1.00D-06.
 No special actions if energy rises.
 Fock matrices will be formed incrementally for  20 cycles.
 Integral accuracy reduced to 1.0D-05 until final iterations.

 Cycle   1  Pass 0  IDiag  1:
 FoFJK:  IHMeth= 1 ICntrl=       0 DoSepK=F KAlg= 0 I1Cent=   0 FoldK=F
 IRaf= 810000000 NMat=   1 IRICut=       1 DoRegI=T DoRafI=F ISym2E= 0.
 FoFCou: FMM=F IPFlag=           0 FMFlag=      100000 FMFlg1=           0
         NFxFlg=           0 DoJE=F BraDBF=F KetDBF=F FulRan=T
         wScrn=  0.000000 ICntrl=       0 IOpCl=  0 I1Cent=           0 NGrid=           0
         NMat0=    1 NMatS0=      1 NMatT0=    0 NMatD0=    1 NMtDS0=    0 NMtDT0=    0
 Symmetry not used in FoFCou.
 E= -971.990658634048    
 DIIS: error= 2.15D-02 at cycle   1 NSaved=   1.
 NSaved= 1 IEnMin= 1 EnMin= -971.990658634048     IErMin= 1 ErrMin= 2.15D-02
 ErrMax= 2.15D-02  0.00D+00 EMaxC= 1.00D-01 BMatC= 4.80D-01 BMatP= 4.80D-01
 IDIUse=3 WtCom= 7.85D-01 WtEn= 2.15D-01
 Coeff-Com:  0.100D+01
 Coeff-En:   0.100D+01
 Coeff:      0.100D+01
 Gap=     0.188 Goal=   None    Shift=    0.000
 GapD=    0.188 DampG=1.000 DampE=0.500 DampFc=0.5000 IDamp=-1.
 Damping current iteration by 5.00D-01
 RMSDP=2.14D-03 MaxDP=1.77D-01              OVMax= 2.66D-01

 Cycle   2  Pass 0  IDiag  1:
 RMSU=  1.07D-03    CP:  9.99D-01
 E= -972.103012997470     Delta-E=       -0.112354363422 Rises=F Damp=T
 DIIS: error= 8.57D-03 at cycle   2 NSaved=   2.
 NSaved= 2 IEnMin= 2 EnMin= -972.103012997470     IErMin= 2 ErrMin= 8.57D-03
 ErrMax= 8.57D-03  0.00D+00 EMaxC= 1.00D-01 BMatC= 7.31D-02 BMatP= 4.80D-01
 IDIUse=3 WtCom= 9.14D-01 WtEn= 8.57D-02
 Coeff-Com:  0.214D+00 0.786D+00
 Coeff-En:   0.338D+00 0.662D+00
 Coeff:      0.225D+00 0.775D+00
 Gap=     0.282 Goal=   None    Shift=    0.000
 RMSDP=6.89D-04 MaxDP=3.07D-02 DE=-1.12D-01 OVMax= 2.06D-01

 Cycle   3  Pass 0  IDiag  1:
 RMSU=  6.09D-04    CP:  1.00D+00  7.00D-01
 E= -972.327925042742     Delta-E=       -0.224912045272 Rises=F Damp=F
 DIIS: error= 1.13D-02 at cycle   3 NSaved=   3.
 NSaved= 3 IEnMin= 3 EnMin= -972.327925042742     IErMin= 2 ErrMin= 8.57D-03
 ErrMax= 1.13D-02  0.00D+00 EMaxC= 1.00D-01 BMatC= 8.24D-02 BMatP= 7.31D-02
 IDIUse=2 WtCom= 0.00D+00 WtEn= 1.00D+00
 Coeff-En:   0.000D+00 0.000D+00 0.100D+01
 Coeff:      0.000D+00 0.000D+00 0.100D+01
 Gap=     0.164 Goal=   None    Shift=    0.000
 RMSDP=9.12D-04 MaxDP=5.08D-02 DE=-2.25D-01 OVMax= 2.36D-01

 Cycle   4  Pass 0  IDiag  1:
 RMSU=  6.66D-04    CP:  1.00D+00  1.06D+00  1.92D-01
 E= -972.034539438878     Delta-E=        0.293385603864 Rises=F Damp=F
 DIIS: error= 2.67D-02 at cycle   4 NSaved=   4.
 NSaved= 4 IEnMin= 3 EnMin= -972.327925042742     IErMin= 2 ErrMin= 8.57D-03
 ErrMax= 2.67D-02  0.00D+00 EMaxC= 1.00D-01 BMatC= 4.71D-01 BMatP= 7.31D-02
 IDIUse=2 WtCom= 0.00D+00 WtEn= 1.00D+00
 Coeff-En:   0.000D+00 0.000D+00 0.793D+00 0.207D+00
 Coeff:      0.000D+00 0.000D+00 0.793D+00 0.207D+00
 Gap=     0.175 Goal=   None    Shift=    0.000
 RMSDP=5.00D-04 MaxDP=3.10D-02 DE= 2.93D-01 OVMax= 1.07D-01

 Cycle   5  Pass 0  IDiag  1:
 RMSU=  7.55D-05    CP:  1.00D+00  7.88D-01  6.19D-01  5.42D-01
 E= -972.368183288451     Delta-E=       -0.333643849573 Rises=F Damp=F
 DIIS: error= 6.89D-03 at cycle   5 NSaved=   5.
 NSaved= 5 IEnMin= 5 EnMin= -972.368183288451     IErMin= 5 ErrMin= 6.89D-03
 ErrMax= 6.89D-03  0.00D+00 EMaxC= 1.00D-01 BMatC= 3.26D-02 BMatP= 7.31D-02
 IDIUse=3 WtCom= 9.31D-01 WtEn= 6.89D-02
 Coeff-Com: -0.982D-02 0.476D-01 0.292D+00-0.990D-01 0.769D+00
 Coeff-En:   0.000D+00 0.000D+00 0.324D+00 0.000D+00 0.676D+00
 Coeff:     -0.914D-02 0.443D-01 0.294D+00-0.922D-01 0.763D+00
 Gap=     0.180 Goal=   None    Shift=    0.000
 RMSDP=1.66D-04 MaxDP=9.47D-03 DE=-3.34D-01 OVMax= 3.59D-02

 Cycle   6  Pass 0  IDiag  1:
 RMSU=  2.23D-05    CP:  1.00D+00  7.48D-01  7.73D-01  3.51D-01  8.96D-01
 E= -972.393423126266     Delta-E=       -0.025239837815 Rises=F Damp=F
 DIIS: error= 1.52D-04 at cycle   6 NSaved=   6.
 NSaved= 6 IEnMin= 6 EnMin= -972.393423126266     IErMin= 6 ErrMin= 1.52D-04
 ErrMax= 1.52D-04  0.00D+00 EMaxC= 1.00D-01 BMatC= 3.54D-05 BMatP= 3.26D-02
 IDIUse=3 WtCom= 9.98D-01 WtEn= 1.52D-03
 Coeff-Com: -0.540D-02 0.141D-01 0.835D-01-0.425D-01 0.279D+00 0.671D+00
 Coeff-En:   0.000D+00 0.000D+00 0.000D+00 0.000D+00 0.000D+00 0.100D+01
 Coeff:     -0.539D-02 0.141D-01 0.834D-01-0.424D-01 0.279D+00 0.671D+00
 Gap=     0.180 Goal=   None    Shift=    0.000
 RMSDP=1.07D-05 MaxDP=5.83D-04 DE=-2.52D-02 OVMax= 1.41D-03

 Cycle   7  Pass 0  IDiag  1:
 RMSU=  9.14D-06    CP:  1.00D+00  7.51D-01  7.72D-01  3.52D-01  9.18D-01
                    CP:  8.39D-01
 E= -972.393442391529     Delta-E=       -0.000019265263 Rises=F Damp=F
 DIIS: error= 9.15D-05 at cycle   7 NSaved=   7.
 NSaved= 7 IEnMin= 7 EnMin= -972.393442391529     IErMin= 7 ErrMin= 9.15D-05
 ErrMax= 9.15D-05  0.00D+00 EMaxC= 1.00D-01 BMatC= 1.30D-05 BMatP= 3.54D-05
 IDIUse=1 WtCom= 1.00D+00 WtEn= 0.00D+00
 Coeff-Com: -0.138D-02 0.897D-03 0.142D-01-0.937D-02 0.594D-01 0.407D+00
 Coeff-Com:  0.529D+00
 Coeff:     -0.138D-02 0.897D-03 0.142D-01-0.937D-02 0.594D-01 0.407D+00
 Coeff:      0.529D+00
 Gap=     0.180 Goal=   None    Shift=    0.000
 RMSDP=4.79D-06 MaxDP=2.84D-04 DE=-1.93D-05 OVMax= 7.57D-04

 Initial convergence to 1.0D-05 achieved.  Increase integral accuracy.
 Cycle   8  Pass 1  IDiag  1:
 E= -972.393444614925     Delta-E=       -0.000002223397 Rises=F Damp=F
 DIIS: error= 1.10D-04 at cycle   1 NSaved=   1.
 NSaved= 1 IEnMin= 1 EnMin= -972.393444614925     IErMin= 1 ErrMin= 1.10D-04
 ErrMax= 1.10D-04  0.00D+00 EMaxC= 1.00D-01 BMatC= 6.38D-06 BMatP= 6.38D-06
 IDIUse=3 WtCom= 9.99D-01 WtEn= 1.10D-03
 Coeff-Com:  0.100D+01
 Coeff-En:   0.100D+01
 Coeff:      0.100D+01
 Gap=     0.180 Goal=   None    Shift=    0.000
 RMSDP=4.79D-06 MaxDP=2.84D-04 DE=-2.22D-06 OVMax= 7.43D-04

 Cycle   9  Pass 1  IDiag  1:
 RMSU=  3.48D-05    CP:  1.00D+00
 E= -972.393444361793     Delta-E=        0.000000253132 Rises=F Damp=F
 DIIS: error= 8.64D-05 at cycle   2 NSaved=   2.
 NSaved= 2 IEnMin= 1 EnMin= -972.393444614925     IErMin= 2 ErrMin= 8.64D-05
 ErrMax= 8.64D-05  0.00D+00 EMaxC= 1.00D-01 BMatC= 6.81D-06 BMatP= 6.38D-06
 IDIUse=1 WtCom= 1.00D+00 WtEn= 0.00D+00
 Coeff-Com:  0.511D+00 0.489D+00
 Coeff:      0.511D+00 0.489D+00
 Gap=     0.180 Goal=   None    Shift=    0.000
 RMSDP=3.77D-06 MaxDP=2.22D-04 DE= 2.53D-07 OVMax= 7.60D-04

 Cycle  10  Pass 1  IDiag  1:
 RMSU=  3.76D-06    CP:  1.00D+00  1.01D+00
 E= -972.393447905110     Delta-E=       -0.000003543317 Rises=F Damp=F
 DIIS: error= 4.43D-05 at cycle   3 NSaved=   3.
 NSaved= 3 IEnMin= 3 EnMin= -972.393447905110     IErMin= 3 ErrMin= 4.43D-05
 ErrMax= 4.43D-05  0.00D+00 EMaxC= 1.00D-01 BMatC= 1.99D-06 BMatP= 6.38D-06
 IDIUse=1 WtCom= 1.00D+00 WtEn= 0.00D+00
 Coeff-Com:  0.658D-02 0.349D+00 0.645D+00
 Coeff:      0.658D-02 0.349D+00 0.645D+00
 Gap=     0.180 Goal=   None    Shift=    0.000
 RMSDP=1.50D-06 MaxDP=9.26D-05 DE=-3.54D-06 OVMax= 2.87D-04

 Cycle  11  Pass 1  IDiag  1:
 RMSU=  7.73D-07    CP:  1.00D+00  1.02D+00  6.86D-01
 E= -972.393449284477     Delta-E=       -0.000001379367 Rises=F Damp=F
 DIIS: error= 7.10D-06 at cycle   4 NSaved=   4.
 NSaved= 4 IEnMin= 4 EnMin= -972.393449284477     IErMin= 4 ErrMin= 7.10D-06
 ErrMax= 7.10D-06  0.00D+00 EMaxC= 1.00D-01 BMatC= 6.14D-08 BMatP= 1.99D-06
 IDIUse=1 WtCom= 1.00D+00 WtEn= 0.00D+00
 Coeff-Com: -0.968D-02 0.178D+00 0.352D+00 0.479D+00
 Coeff:     -0.968D-02 0.178D+00 0.352D+00 0.479D+00
 Gap=     0.180 Goal=   None    Shift=    0.000
 RMSDP=3.32D-07 MaxDP=1.72D-05 DE=-1.38D-06 OVMax= 3.52D-05

 Cycle  12  Pass 1  IDiag  1:
 RMSU=  2.92D-07    CP:  1.00D+00  1.02D+00  7.03D-01  8.16D-01
 E= -972.393449336191     Delta-E=       -0.000000051714 Rises=F Damp=F
 DIIS: error= 6.93D-07 at cycle   5 NSaved=   5.
 NSaved= 5 IEnMin= 5 EnMin= -972.393449336191     IErMin= 5 ErrMin= 6.93D-07
 ErrMax= 6.93D-07  0.00D+00 EMaxC= 1.00D-01 BMatC= 1.35D-09 BMatP= 6.14D-08
 IDIUse=1 WtCom= 1.00D+00 WtEn= 0.00D+00
 Coeff-Com: -0.394D-02 0.461D-01 0.932D-01 0.179D+00 0.685D+00
 Coeff:     -0.394D-02 0.461D-01 0.932D-01 0.179D+00 0.685D+00
 Gap=     0.180 Goal=   None    Shift=    0.000
 RMSDP=6.65D-08 MaxDP=3.87D-06 DE=-5.17D-08 OVMax= 9.20D-06

 Cycle  13  Pass 1  IDiag  1:
 RMSU=  5.53D-08    CP:  1.00D+00  1.02D+00  7.03D-01  8.62D-01  1.01D+00
 E= -972.393449336890     Delta-E=       -0.000000000699 Rises=F Damp=F
 DIIS: error= 5.31D-07 at cycle   6 NSaved=   6.
 NSaved= 6 IEnMin= 6 EnMin= -972.393449336890     IErMin= 6 ErrMin= 5.31D-07
 ErrMax= 5.31D-07  0.00D+00 EMaxC= 1.00D-01 BMatC= 4.93D-10 BMatP= 1.35D-09
 IDIUse=1 WtCom= 1.00D+00 WtEn= 0.00D+00
 Coeff-Com: -0.767D-03-0.864D-03-0.532D-03 0.325D-01 0.406D+00 0.564D+00
 Coeff:     -0.767D-03-0.864D-03-0.532D-03 0.325D-01 0.406D+00 0.564D+00
 Gap=     0.180 Goal=   None    Shift=    0.000
 RMSDP=3.37D-08 MaxDP=1.50D-06 DE=-6.99D-10 OVMax= 5.71D-06

 Cycle  14  Pass 1  IDiag  1:
 RMSU=  2.35D-08    CP:  1.00D+00  1.02D+00  7.03D-01  8.76D-01  1.06D+00
                    CP:  7.06D-01
 E= -972.393449337357     Delta-E=       -0.000000000467 Rises=F Damp=F
 DIIS: error= 3.40D-07 at cycle   7 NSaved=   7.
 NSaved= 7 IEnMin= 7 EnMin= -972.393449337357     IErMin= 7 ErrMin= 3.40D-07
 ErrMax= 3.40D-07  0.00D+00 EMaxC= 1.00D-01 BMatC= 7.26D-11 BMatP= 4.93D-10
 IDIUse=1 WtCom= 1.00D+00 WtEn= 0.00D+00
 Coeff-Com: -0.687D-04-0.488D-02-0.919D-02 0.166D-02 0.173D+00 0.348D+00
 Coeff-Com:  0.491D+00
 Coeff:     -0.687D-04-0.488D-02-0.919D-02 0.166D-02 0.173D+00 0.348D+00
 Coeff:      0.491D+00
 Gap=     0.180 Goal=   None    Shift=    0.000
 RMSDP=1.15D-08 MaxDP=6.08D-07 DE=-4.67D-10 OVMax= 2.52D-06

 Cycle  15  Pass 1  IDiag  1:
 RMSU=  7.86D-09    CP:  1.00D+00  1.02D+00  7.04D-01  8.80D-01  1.06D+00
                    CP:  7.69D-01  7.18D-01
 E= -972.393449337347     Delta-E=        0.000000000010 Rises=F Damp=F
 DIIS: error= 1.40D-07 at cycle   8 NSaved=   8.
 NSaved= 8 IEnMin= 7 EnMin= -972.393449337357     IErMin= 8 ErrMin= 1.40D-07
 ErrMax= 1.40D-07  0.00D+00 EMaxC= 1.00D-01 BMatC= 1.17D-11 BMatP= 7.26D-11
 IDIUse=1 WtCom= 1.00D+00 WtEn= 0.00D+00
 Coeff-Com:  0.963D-04-0.335D-02-0.654D-02-0.492D-02 0.442D-01 0.131D+00
 Coeff-Com:  0.322D+00 0.518D+00
 Coeff:      0.963D-04-0.335D-02-0.654D-02-0.492D-02 0.442D-01 0.131D+00
 Coeff:      0.322D+00 0.518D+00
 Gap=     0.180 Goal=   None    Shift=    0.000
 RMSDP=3.70D-09 MaxDP=2.43D-07 DE= 1.00D-11 OVMax= 6.33D-07

 SCF Done:  E(RM06) =  -972.393449337     A.U. after   15 cycles
            NFock= 15  Conv=0.37D-08     -V/T= 2.0055
 KE= 9.670397833107D+02 PE=-4.182482478623D+03 EE= 1.294526108306D+03
 Leave Link  502 at Fri Sep 27 16:12:43 2013, MaxMem= 17179869184 cpu:      9380.7
 (Enter /system/software/linux-x86_64/gaussian/g09/D.01__pgi_12.10__atlas/l601.exe)
 Copying SCF densities to generalized density rwf, IOpCl= 0 IROHF=0.

 **********************************************************************

            Population analysis using the SCF density.

 **********************************************************************

 Orbital symmetries:
       Occupied  (A) (A) (A) (A) (A) (A) (A) (A) (A) (A) (A) (A)
                 (A) (A) (A) (A) (A) (A) (A) (A) (A) (A) (A) (A)
                 (A) (A) (A) (A) (A) (A) (A) (A) (A) (A) (A) (A)
                 (A) (A) (A) (A) (A) (A) (A) (A) (A) (A) (A) (A)
                 (A) (A) (A) (A) (A) (A) (A)
       Virtual   (A) (A) (A) (A) (A) (A) (A) (A) (A) (A) (A) (A)
                 (A) (A) (A) (A) (A) (A) (A) (A) (A) (A) (A) (A)
                 (A) (A) (A) (A) (A) (A) (A) (A) (A) (A) (A) (A)
                 (A) (A) (A) (A) (A) (A) (A) (A) (A) (A) (A) (A)
                 (A) (A) (A) (A) (A) (A) (A) (A) (A) (A) (A) (A)
                 (A) (A) (A) (A) (A) (A) (A) (A) (A) (A) (A) (A)
                 (A) (A) (A) (A) (A) (A) (A) (A) (A) (A) (A) (A)
                 (A) (A) (A) (A) (A) (A) (A) (A) (A) (A) (A) (A)
                 (A) (A) (A) (A) (A) (A) (A) (A) (A) (A) (A) (A)
                 (A) (A) (A) (A) (A) (A) (A) (A) (A) (A) (A) (A)
                 (A) (A) (A) (A) (A) (A) (A) (A) (A) (A) (A) (A)
                 (A) (A) (A) (A) (A) (A) (A) (A) (A) (A) (A) (A)
                 (A) (A) (A) (A) (A) (A) (A) (A) (A) (A) (A) (A)
                 (A) (A) (A) (A) (A) (A) (A) (A) (A) (A) (A) (A)
                 (A) (A) (A) (A) (A) (A) (A) (A) (A) (A) (A) (A)
                 (A) (A) (A) (A) (A) (A) (A) (A) (A) (A) (A) (A)
                 (A) (A) (A) (A) (A) (A) (A) (A) (A) (A) (A) (A)
                 (A) (A) (A) (A) (A) (A) (A) (A) (A) (A) (A) (A)
                 (A) (A) (A) (A) (A) (A) (A) (A) (A) (A) (A) (A)
                 (A) (A) (A) (A) (A) (A) (A) (A) (A) (A) (A) (A)
                 (A) (A) (A) (A) (A) (A) (A) (A) (A) (A) (A) (A)
                 (A) (A) (A) (A) (A) (A) (A) (A) (A) (A) (A) (A)
                 (A) (A) (A) (A) (A) (A) (A) (A) (A) (A) (A) (A)
                 (A) (A) (A) (A) (A) (A) (A) (A) (A) (A) (A) (A)
                 (A) (A) (A) (A) (A) (A) (A) (A) (A) (A) (A) (A)
                 (A) (A) (A) (A) (A) (A) (A) (A) (A) (A) (A) (A)
                 (A) (A) (A) (A) (A) (A) (A) (A) (A) (A) (A) (A)
                 (A) (A) (A) (A) (A) (A) (A) (A) (A) (A) (A) (A)
                 (A) (A) (A) (A) (A) (A) (A) (A) (A) (A) (A) (A)
                 (A) (A) (A) (A) (A) (A) (A) (A) (A) (A) (A) (A)
                 (A) (A) (A) (A) (A) (A) (A) (A) (A) (A) (A) (A)
                 (A) (A) (A) (A) (A) (A) (A) (A) (A) (A) (A) (A)
                 (A) (A) (A) (A) (A) (A) (A) (A) (A) (A) (A) (A)
                 (A) (A) (A) (A) (A) (A) (A) (A) (A) (A) (A) (A)
                 (A) (A) (A) (A) (A) (A) (A) (A) (A) (A) (A) (A)
                 (A) (A) (A) (A) (A) (A) (A) (A) (A) (A) (A) (A)
                 (A) (A) (A) (A) (A) (A) (A) (A) (A) (A) (A) (A)
                 (A) (A) (A) (A) (A) (A) (A) (A) (A) (A) (A) (A)
                 (A) (A) (A) (A) (A) (A) (A) (A) (A) (A) (A) (A)
                 (A) (A) (A) (A) (A) (A) (A) (A) (A) (A) (A) (A)
                 (A) (A) (A) (A) (A) (A) (A) (A) (A) (A) (A) (A)
                 (A) (A) (A) (A) (A) (A) (A) (A) (A) (A) (A) (A)
                 (A) (A) (A) (A) (A) (A) (A) (A) (A) (A) (A) (A)
                 (A) (A) (A) (A) (A) (A) (A) (A) (A) (A) (A) (A)
                 (A) (A) (A) (A) (A) (A) (A) (A) (A) (A) (A) (A)
                 (A) (A) (A) (A) (A) (A) (A) (A) (A) (A) (A) (A)
                 (A) (A) (A) (A) (A) (A) (A) (A) (A) (A) (A)
 The electronic state is 1-A.
 Alpha  occ. eigenvalues --  -89.03227 -19.21615 -19.21032 -14.43299 -14.41662
 Alpha  occ. eigenvalues --  -10.38203 -10.37070 -10.30269 -10.26429 -10.26302
 Alpha  occ. eigenvalues --  -10.24862 -10.24452 -10.21959  -8.02624  -5.94501
 Alpha  occ. eigenvalues --   -5.94075  -5.93396  -1.06980  -1.05848  -0.95289
 Alpha  occ. eigenvalues --   -0.92737  -0.82139  -0.79040  -0.76054  -0.72658
 Alpha  occ. eigenvalues --   -0.69914  -0.64302  -0.60337  -0.58770  -0.57544
 Alpha  occ. eigenvalues --   -0.54890  -0.53337  -0.49608  -0.47972  -0.47360
 Alpha  occ. eigenvalues --   -0.46674  -0.46341  -0.44124  -0.44094  -0.43386
 Alpha  occ. eigenvalues --   -0.43008  -0.42872  -0.42428  -0.40944  -0.39464
 Alpha  occ. eigenvalues --   -0.38273  -0.37339  -0.36868  -0.35093  -0.32433
 Alpha  occ. eigenvalues --   -0.29533  -0.29200  -0.27524  -0.26290  -0.21387
 Alpha virt. eigenvalues --   -0.03357  -0.02566   0.01075   0.04091   0.04740
 Alpha virt. eigenvalues --    0.05164   0.06522   0.07241   0.07707   0.08745
 Alpha virt. eigenvalues --    0.09146   0.09423   0.09897   0.10230   0.10458
 Alpha virt. eigenvalues --    0.11518   0.12313   0.13635   0.14211   0.14294
 Alpha virt. eigenvalues --    0.15451   0.16293   0.17785   0.18769   0.20519
 Alpha virt. eigenvalues --    0.21055   0.22863   0.23658   0.24087   0.24919
 Alpha virt. eigenvalues --    0.25439   0.26053   0.26511   0.26888   0.27623
 Alpha virt. eigenvalues --    0.28927   0.29903   0.30963   0.31951   0.32283
 Alpha virt. eigenvalues --    0.33256   0.33471   0.34129   0.34815   0.35404
 Alpha virt. eigenvalues --    0.36263   0.36675   0.37615   0.38359   0.38893
 Alpha virt. eigenvalues --    0.39502   0.39985   0.40346   0.40664   0.40884
 Alpha virt. eigenvalues --    0.41335   0.42018   0.42263   0.42577   0.42768
 Alpha virt. eigenvalues --    0.43708   0.43999   0.44269   0.44746   0.46054
 Alpha virt. eigenvalues --    0.46365   0.46628   0.47308   0.48217   0.48307
 Alpha virt. eigenvalues --    0.49301   0.49418   0.50272   0.51338   0.52142
 Alpha virt. eigenvalues --    0.53236   0.54961   0.55600   0.56405   0.56882
 Alpha virt. eigenvalues --    0.57538   0.58975   0.59806   0.61182   0.63867
 Alpha virt. eigenvalues --    0.64918   0.66005   0.67410   0.68158   0.68864
 Alpha virt. eigenvalues --    0.69947   0.70565   0.72252   0.73236   0.74079
 Alpha virt. eigenvalues --    0.75117   0.75828   0.77517   0.77794   0.78466
 Alpha virt. eigenvalues --    0.79715   0.80913   0.82305   0.82886   0.84507
 Alpha virt. eigenvalues --    0.84851   0.85126   0.85790   0.86458   0.87790
 Alpha virt. eigenvalues --    0.88197   0.89363   0.90311   0.91614   0.92022
 Alpha virt. eigenvalues --    0.93310   0.94343   0.95252   0.96198   0.96627
 Alpha virt. eigenvalues --    0.97222   0.97390   0.98624   0.99779   1.00380
 Alpha virt. eigenvalues --    1.00616   1.01973   1.03471   1.03871   1.04993
 Alpha virt. eigenvalues --    1.06441   1.07095   1.07406   1.08015   1.08985
 Alpha virt. eigenvalues --    1.09854   1.10558   1.11637   1.11955   1.12567
 Alpha virt. eigenvalues --    1.13862   1.15577   1.16314   1.16576   1.18248
 Alpha virt. eigenvalues --    1.18566   1.19226   1.19893   1.20604   1.21550
 Alpha virt. eigenvalues --    1.22368   1.23363   1.23565   1.24907   1.25128
 Alpha virt. eigenvalues --    1.25921   1.26332   1.26456   1.27788   1.27976
 Alpha virt. eigenvalues --    1.28670   1.29598   1.30567   1.31578   1.32173
 Alpha virt. eigenvalues --    1.32870   1.34703   1.35524   1.36908   1.38898
 Alpha virt. eigenvalues --    1.39125   1.40517   1.41606   1.41996   1.43540
 Alpha virt. eigenvalues --    1.44963   1.47160   1.47695   1.48651   1.49255
 Alpha virt. eigenvalues --    1.50910   1.51448   1.52677   1.53380   1.55469
 Alpha virt. eigenvalues --    1.56424   1.57486   1.58650   1.59723   1.61186
 Alpha virt. eigenvalues --    1.61852   1.64201   1.64412   1.66020   1.68301
 Alpha virt. eigenvalues --    1.70665   1.72857   1.73192   1.74217   1.75242
 Alpha virt. eigenvalues --    1.76327   1.77925   1.80126   1.81131   1.85867
 Alpha virt. eigenvalues --    1.86295   1.89007   1.90790   1.91380   1.92791
 Alpha virt. eigenvalues --    1.95232   1.96142   1.98645   2.00170   2.01863
 Alpha virt. eigenvalues --    2.03291   2.06405   2.08206   2.11737   2.13630
 Alpha virt. eigenvalues --    2.14108   2.16103   2.18188   2.19557   2.20037
 Alpha virt. eigenvalues --    2.21202   2.23875   2.24594   2.26108   2.26886
 Alpha virt. eigenvalues --    2.27647   2.29533   2.30743   2.32837   2.35374
 Alpha virt. eigenvalues --    2.36110   2.37545   2.38818   2.39954   2.41350
 Alpha virt. eigenvalues --    2.42760   2.43521   2.45445   2.48369   2.49355
 Alpha virt. eigenvalues --    2.51104   2.53533   2.54697   2.56760   2.58843
 Alpha virt. eigenvalues --    2.59457   2.60276   2.60773   2.62254   2.63845
 Alpha virt. eigenvalues --    2.65068   2.65328   2.66032   2.66678   2.67409
 Alpha virt. eigenvalues --    2.68793   2.69672   2.70577   2.71366   2.72141
 Alpha virt. eigenvalues --    2.72669   2.73510   2.73631   2.75873   2.76505
 Alpha virt. eigenvalues --    2.78696   2.79170   2.79556   2.82251   2.83003
 Alpha virt. eigenvalues --    2.83972   2.85580   2.86447   2.87248   2.87923
 Alpha virt. eigenvalues --    2.88863   2.89786   2.90884   2.92716   2.93333
 Alpha virt. eigenvalues --    2.93467   2.94690   2.94888   2.95980   2.97123
 Alpha virt. eigenvalues --    2.98305   2.98607   2.99480   3.00710   3.01730
 Alpha virt. eigenvalues --    3.02455   3.03550   3.04286   3.04610   3.04847
 Alpha virt. eigenvalues --    3.05179   3.05824   3.06643   3.07463   3.08311
 Alpha virt. eigenvalues --    3.10106   3.10558   3.12266   3.12735   3.13765
 Alpha virt. eigenvalues --    3.15301   3.16447   3.17673   3.18081   3.18225
 Alpha virt. eigenvalues --    3.19648   3.21592   3.22428   3.23069   3.23937
 Alpha virt. eigenvalues --    3.26183   3.26516   3.28432   3.29420   3.29680
 Alpha virt. eigenvalues --    3.30269   3.31404   3.33132   3.34037   3.34385
 Alpha virt. eigenvalues --    3.35532   3.36120   3.37404   3.37601   3.38669
 Alpha virt. eigenvalues --    3.39131   3.39906   3.40475   3.41294   3.42020
 Alpha virt. eigenvalues --    3.42654   3.43268   3.45334   3.45413   3.46827
 Alpha virt. eigenvalues --    3.47196   3.47480   3.48919   3.50392   3.50923
 Alpha virt. eigenvalues --    3.51984   3.53516   3.53941   3.55917   3.57358
 Alpha virt. eigenvalues --    3.58467   3.58770   3.59785   3.61867   3.63108
 Alpha virt. eigenvalues --    3.63381   3.65506   3.66452   3.68832   3.69195
 Alpha virt. eigenvalues --    3.70563   3.73067   3.73742   3.74404   3.75445
 Alpha virt. eigenvalues --    3.75577   3.76596   3.77188   3.77841   3.78338
 Alpha virt. eigenvalues --    3.79348   3.80940   3.81593   3.82835   3.83269
 Alpha virt. eigenvalues --    3.83523   3.84386   3.86014   3.86836   3.87011
 Alpha virt. eigenvalues --    3.89019   3.90678   3.92000   3.93049   3.94190
 Alpha virt. eigenvalues --    3.95439   3.96795   3.97417   3.97824   3.98841
 Alpha virt. eigenvalues --    3.99843   4.00597   4.01223   4.02203   4.04191
 Alpha virt. eigenvalues --    4.05344   4.06417   4.06937   4.07522   4.08179
 Alpha virt. eigenvalues --    4.09032   4.09640   4.10418   4.11449   4.12104
 Alpha virt. eigenvalues --    4.12919   4.13335   4.15327   4.16042   4.16801
 Alpha virt. eigenvalues --    4.19485   4.20648   4.22248   4.23165   4.24518
 Alpha virt. eigenvalues --    4.24572   4.26331   4.26622   4.27313   4.28156
 Alpha virt. eigenvalues --    4.29239   4.30012   4.32955   4.33345   4.34901
 Alpha virt. eigenvalues --    4.35360   4.37789   4.39844   4.42436   4.43412
 Alpha virt. eigenvalues --    4.46670   4.48495   4.50698   4.50972   4.54225
 Alpha virt. eigenvalues --    4.55572   4.56897   4.59691   4.61694   4.63883
 Alpha virt. eigenvalues --    4.66802   4.68060   4.68790   4.70365   4.71876
 Alpha virt. eigenvalues --    4.73110   4.74647   4.75063   4.76309   4.78851
 Alpha virt. eigenvalues --    4.79475   4.81052   4.82402   4.83731   4.85470
 Alpha virt. eigenvalues --    4.85559   4.87212   4.90825   4.92437   4.93104
 Alpha virt. eigenvalues --    4.93328   4.94053   4.95244   4.96248   4.96949
 Alpha virt. eigenvalues --    4.98677   4.99340   5.00656   5.03864   5.05088
 Alpha virt. eigenvalues --    5.05657   5.07164   5.07434   5.08450   5.09656
 Alpha virt. eigenvalues --    5.10221   5.10799   5.12460   5.13957   5.15021
 Alpha virt. eigenvalues --    5.15957   5.16542   5.17526   5.18325   5.19163
 Alpha virt. eigenvalues --    5.20086   5.20220   5.21040   5.21736   5.22830
 Alpha virt. eigenvalues --    5.23869   5.27573   5.28270   5.29582   5.30918
 Alpha virt. eigenvalues --    5.32100   5.33175   5.34813   5.38097   5.40141
 Alpha virt. eigenvalues --    5.41421   5.43626   5.45356   5.48772   5.50039
 Alpha virt. eigenvalues --    5.55229   5.57773   5.60536   5.61998   5.66907
 Alpha virt. eigenvalues --    5.67643   5.68882   5.71049   5.71396   5.73355
 Alpha virt. eigenvalues --    5.76322   5.76977   5.78102   5.78895   5.79510
 Alpha virt. eigenvalues --    5.79882   5.83890   5.88934   5.90473   5.91611
 Alpha virt. eigenvalues --    5.94937   5.96623   6.07111   6.09537   6.09826
 Alpha virt. eigenvalues --    6.18947   6.20236   6.43476   6.47649   6.50277
 Alpha virt. eigenvalues --    6.53867   6.55429   6.56792   6.63938   6.80713
 Alpha virt. eigenvalues --    6.86335   6.89486   7.04514   7.09854   7.14352
 Alpha virt. eigenvalues --    7.26539   8.99748   9.36472  11.66758  11.82409
 Alpha virt. eigenvalues --   12.17025  12.28577  12.35018  12.68536  12.90648
 Alpha virt. eigenvalues --   13.33773  13.54312  13.71272
          Condensed to atoms (all electrons):
               1          2          3          4          5          6
     1  C    4.922134   0.399351   0.399685   0.404270  -0.020287  -0.002300
     2  H    0.399351   0.595715  -0.040942  -0.024918  -0.001810  -0.000933
     3  H    0.399685  -0.040942   0.596103  -0.025136  -0.003438   0.005926
     4  H    0.404270  -0.024918  -0.025136   0.552840   0.003021  -0.000107
     5  C   -0.020287  -0.001810  -0.003438   0.003021   5.162997   0.414659
     6  H   -0.002300  -0.000933   0.005926  -0.000107   0.414659   0.542127
     7  H   -0.002025   0.005678  -0.000784  -0.000144   0.408711  -0.033408
     8  C    0.002251  -0.000085  -0.000181  -0.000107   0.233745  -0.042888
     9  H   -0.000016  -0.000047   0.000064  -0.000010  -0.029639   0.005124
    10  H   -0.000144   0.000089  -0.000047  -0.000009  -0.027466  -0.004583
    11  C   -0.000241   0.000013   0.000059   0.000003  -0.039579   0.006933
    12  H    0.000000  -0.000002   0.000002   0.000000  -0.003662   0.002497
    13  C   -0.000001  -0.000001   0.000001   0.000000   0.004349   0.000661
    14  S    0.216536  -0.050107  -0.048310  -0.022794   0.215152  -0.047856
    15  N    0.000003  -0.000026   0.000000   0.000000  -0.011239  -0.001978
    16  H   -0.000001   0.000001   0.000000   0.000000   0.000112  -0.000198
    17  O    0.000000   0.000000   0.000000   0.000000   0.001109  -0.000028
    18  C    0.000006  -0.000011  -0.000003   0.000000   0.003339  -0.000654
    19  C    0.000000   0.000000   0.000000   0.000000   0.000357  -0.000037
    20  H    0.000000   0.000000   0.000000   0.000000  -0.000022   0.000004
    21  H    0.000000   0.000000   0.000000   0.000000  -0.000015   0.000000
    22  H    0.000000   0.000001   0.000000   0.000000   0.000022  -0.000001
    23  N    0.000000   0.000000   0.000000   0.000000  -0.000051  -0.000013
    24  H    0.000000   0.000000   0.000000   0.000000  -0.000007  -0.000001
    25  C    0.000000   0.000000   0.000000   0.000000   0.000006   0.000001
    26  H    0.000000   0.000000   0.000000   0.000000   0.000003   0.000000
    27  H    0.000000   0.000000   0.000000   0.000000  -0.000001   0.000000
    28  H    0.000000   0.000000   0.000000   0.000000   0.000000   0.000000
    29  O   -0.000007   0.000006   0.000000   0.000000   0.006198  -0.000100
               7          8          9         10         11         12
     1  C   -0.002025   0.002251  -0.000016  -0.000144  -0.000241   0.000000
     2  H    0.005678  -0.000085  -0.000047   0.000089   0.000013  -0.000002
     3  H   -0.000784  -0.000181   0.000064  -0.000047   0.000059   0.000002
     4  H   -0.000144  -0.000107  -0.000010  -0.000009   0.000003   0.000000
     5  C    0.408711   0.233745  -0.029639  -0.027466  -0.039579  -0.003662
     6  H   -0.033408  -0.042888   0.005124  -0.004583   0.006933   0.002497
     7  H    0.513524  -0.029226  -0.003102   0.004852  -0.005818  -0.000677
     8  C   -0.029226   5.412606   0.417108   0.399065   0.232688  -0.024507
     9  H   -0.003102   0.417108   0.390512  -0.010602  -0.021959   0.002298
    10  H    0.004852   0.399065  -0.010602   0.460177  -0.037189  -0.003787
    11  C   -0.005818   0.232688  -0.021959  -0.037189   5.196055   0.427235
    12  H   -0.000677  -0.024507   0.002298  -0.003787   0.427235   0.471704
    13  C    0.000209  -0.074096   0.001517  -0.002496   0.308041  -0.023682
    14  S   -0.046877  -0.039561   0.003862   0.005700   0.003343   0.000014
    15  N    0.010057  -0.020664   0.002451   0.003311   0.227697  -0.023290
    16  H    0.000280   0.008295  -0.000446  -0.000233  -0.032735  -0.007348
    17  O   -0.000096   0.007575   0.000741   0.014529  -0.096374  -0.000007
    18  C    0.001002  -0.026233  -0.016425   0.001757  -0.041750   0.004004
    19  C    0.000378  -0.002921   0.000516   0.000099   0.003659  -0.000456
    20  H   -0.000027   0.000280  -0.000065  -0.000011  -0.000642   0.000003
    21  H    0.000015  -0.000075   0.000098  -0.000009   0.000366   0.000025
    22  H    0.000020   0.000080  -0.000057  -0.000001  -0.000223   0.000018
    23  N   -0.000037   0.007580  -0.000189   0.001122  -0.092996  -0.000288
    24  H    0.000023  -0.001585  -0.000176  -0.000062   0.006254   0.000197
    25  C    0.000001  -0.000223   0.000025  -0.000058   0.008120  -0.000156
    26  H    0.000001   0.000192   0.000030  -0.000068   0.000910  -0.000122
    27  H    0.000000   0.000001  -0.000001  -0.000001   0.000051  -0.000004
    28  H    0.000000  -0.000179  -0.000008   0.000009   0.000312   0.000264
    29  O   -0.000390  -0.081418   0.017095   0.003125  -0.004044  -0.000661
              13         14         15         16         17         18
     1  C   -0.000001   0.216536   0.000003  -0.000001   0.000000   0.000006
     2  H   -0.000001  -0.050107  -0.000026   0.000001   0.000000  -0.000011
     3  H    0.000001  -0.048310   0.000000   0.000000   0.000000  -0.000003
     4  H    0.000000  -0.022794   0.000000   0.000000   0.000000   0.000000
     5  C    0.004349   0.215152  -0.011239   0.000112   0.001109   0.003339
     6  H    0.000661  -0.047856  -0.001978  -0.000198  -0.000028  -0.000654
     7  H    0.000209  -0.046877   0.010057   0.000280  -0.000096   0.001002
     8  C   -0.074096  -0.039561  -0.020664   0.008295   0.007575  -0.026233
     9  H    0.001517   0.003862   0.002451  -0.000446   0.000741  -0.016425
    10  H   -0.002496   0.005700   0.003311  -0.000233   0.014529   0.001757
    11  C    0.308041   0.003343   0.227697  -0.032735  -0.096374  -0.041750
    12  H   -0.023682   0.000014  -0.023290  -0.007348  -0.000007   0.004004
    13  C    4.638679  -0.000097  -0.058774  -0.004182   0.653451  -0.011790
    14  S   -0.000097  15.890984   0.000703   0.000011  -0.000015  -0.000254
    15  N   -0.058774   0.000703   6.556215   0.378370   0.005877   0.280066
    16  H   -0.004182   0.000011   0.378370   0.543475   0.000506  -0.014544
    17  O    0.653451  -0.000015   0.005877   0.000506   7.831096  -0.000794
    18  C   -0.011790  -0.000254   0.280066  -0.014544  -0.000794   4.743920
    19  C    0.001773  -0.000022  -0.061630  -0.002624   0.000040   0.277361
    20  H   -0.000052   0.000000   0.006392   0.002190   0.000047  -0.051145
    21  H    0.000041   0.000000   0.004459  -0.000873  -0.000017  -0.031627
    22  H   -0.000077  -0.000006   0.001155   0.000417   0.000001  -0.020055
    23  N    0.360119   0.000002   0.008686   0.024268  -0.101155  -0.000149
    24  H   -0.016954  -0.000001  -0.007018  -0.003883  -0.001369   0.003582
    25  C   -0.051536   0.000000   0.000722  -0.000005  -0.005922  -0.000271
    26  H   -0.008609   0.000000  -0.000230   0.000323   0.016881  -0.000368
    27  H    0.006344   0.000000  -0.000005  -0.000076   0.001362  -0.000005
    28  H   -0.004700   0.000000   0.000016  -0.000306  -0.001072   0.000076
    29  O    0.013762  -0.000028  -0.100040   0.004615  -0.001535   0.632197
              19         20         21         22         23         24
     1  C    0.000000   0.000000   0.000000   0.000000   0.000000   0.000000
     2  H    0.000000   0.000000   0.000000   0.000001   0.000000   0.000000
     3  H    0.000000   0.000000   0.000000   0.000000   0.000000   0.000000
     4  H    0.000000   0.000000   0.000000   0.000000   0.000000   0.000000
     5  C    0.000357  -0.000022  -0.000015   0.000022  -0.000051  -0.000007
     6  H   -0.000037   0.000004   0.000000  -0.000001  -0.000013  -0.000001
     7  H    0.000378  -0.000027   0.000015   0.000020  -0.000037   0.000023
     8  C   -0.002921   0.000280  -0.000075   0.000080   0.007580  -0.001585
     9  H    0.000516  -0.000065   0.000098  -0.000057  -0.000189  -0.000176
    10  H    0.000099  -0.000011  -0.000009  -0.000001   0.001122  -0.000062
    11  C    0.003659  -0.000642   0.000366  -0.000223  -0.092996   0.006254
    12  H   -0.000456   0.000003   0.000025   0.000018  -0.000288   0.000197
    13  C    0.001773  -0.000052   0.000041  -0.000077   0.360119  -0.016954
    14  S   -0.000022   0.000000   0.000000  -0.000006   0.000002  -0.000001
    15  N   -0.061630   0.006392   0.004459   0.001155   0.008686  -0.007018
    16  H   -0.002624   0.002190  -0.000873   0.000417   0.024268  -0.003883
    17  O    0.000040   0.000047  -0.000017   0.000001  -0.101155  -0.001369
    18  C    0.277361  -0.051145  -0.031627  -0.020055  -0.000149   0.003582
    19  C    4.950837   0.389583   0.391406   0.390442  -0.003611  -0.000898
    20  H    0.389583   0.594858  -0.034284  -0.022796   0.003760  -0.001714
    21  H    0.391406  -0.034284   0.549124  -0.014219  -0.000331   0.001297
    22  H    0.390442  -0.022796  -0.014219   0.535144   0.000118   0.000041
    23  N   -0.003611   0.003760  -0.000331   0.000118   6.555218   0.373167
    24  H   -0.000898  -0.001714   0.001297   0.000041   0.373167   0.544826
    25  C    0.000100   0.000051  -0.000020  -0.000002   0.259501  -0.025749
    26  H    0.000028   0.000051  -0.000015   0.000001  -0.058554  -0.009110
    27  H    0.000011  -0.000002   0.000006   0.000000  -0.024634  -0.004604
    28  H   -0.000001  -0.000016   0.000002   0.000000  -0.028558   0.007028
    29  O   -0.057260   0.003084   0.005749  -0.000479  -0.003323   0.001536
              25         26         27         28         29
     1  C    0.000000   0.000000   0.000000   0.000000  -0.000007
     2  H    0.000000   0.000000   0.000000   0.000000   0.000006
     3  H    0.000000   0.000000   0.000000   0.000000   0.000000
     4  H    0.000000   0.000000   0.000000   0.000000   0.000000
     5  C    0.000006   0.000003  -0.000001   0.000000   0.006198
     6  H    0.000001   0.000000   0.000000   0.000000  -0.000100
     7  H    0.000001   0.000001   0.000000   0.000000  -0.000390
     8  C   -0.000223   0.000192   0.000001  -0.000179  -0.081418
     9  H    0.000025   0.000030  -0.000001  -0.000008   0.017095
    10  H   -0.000058  -0.000068  -0.000001   0.000009   0.003125
    11  C    0.008120   0.000910   0.000051   0.000312  -0.004044
    12  H   -0.000156  -0.000122  -0.000004   0.000264  -0.000661
    13  C   -0.051536  -0.008609   0.006344  -0.004700   0.013762
    14  S    0.000000   0.000000   0.000000   0.000000  -0.000028
    15  N    0.000722  -0.000230  -0.000005   0.000016  -0.100040
    16  H   -0.000005   0.000323  -0.000076  -0.000306   0.004615
    17  O   -0.005922   0.016881   0.001362  -0.001072  -0.001535
    18  C   -0.000271  -0.000368  -0.000005   0.000076   0.632197
    19  C    0.000100   0.000028   0.000011  -0.000001  -0.057260
    20  H    0.000051   0.000051  -0.000002  -0.000016   0.003084
    21  H   -0.000020  -0.000015   0.000006   0.000002   0.005749
    22  H   -0.000002   0.000001   0.000000   0.000000  -0.000479
    23  N    0.259501  -0.058554  -0.024634  -0.028558  -0.003323
    24  H   -0.025749  -0.009110  -0.004604   0.007028   0.001536
    25  C    4.799556   0.407846   0.400307   0.403279  -0.000084
    26  H    0.407846   0.607019  -0.033473  -0.045698   0.000051
    27  H    0.400307  -0.033473   0.580327  -0.022199  -0.000001
    28  H    0.403279  -0.045698  -0.022199   0.580070  -0.000002
    29  O   -0.000084   0.000051  -0.000001  -0.000002   7.917127
 Mulliken charges:
               1
     1  C   -0.319213
     2  H    0.118028
     3  H    0.117004
     4  H    0.113092
     5  C   -0.316564
     6  H    0.157155
     7  H    0.177862
     8  C   -0.377516
     9  H    0.241300
    10  H    0.192933
    11  C   -0.048188
    12  H    0.180386
    13  C    0.268102
    14  S   -0.080378
    15  N   -0.201285
    16  H    0.104591
    17  O   -0.324832
    18  C    0.268769
    19  C   -0.277128
    20  H    0.110475
    21  H    0.128898
    22  H    0.130459
    23  N   -0.279652
    24  H    0.135177
    25  C   -0.195489
    26  H    0.122912
    27  H    0.096597
    28  H    0.111682
    29  O   -0.355173
 Sum of Mulliken charges =   0.00000
 Mulliken charges with hydrogens summed into heavy atoms:
               1
     1  C    0.028911
     5  C    0.018452
     8  C    0.056716
    11  C    0.132197
    13  C    0.268102
    14  S   -0.080378
    15  N   -0.096694
    17  O   -0.324832
    18  C    0.268769
    19  C    0.092703
    23  N   -0.144475
    25  C    0.135701
    29  O   -0.355173
 Electronic spatial extent (au):  <R**2>=           3789.8921
 Charge=              0.0000 electrons
 Dipole moment (field-independent basis, Debye):
    X=              3.0254    Y=              3.2067    Z=              3.8717  Tot=              5.8674
 Quadrupole moment (field-independent basis, Debye-Ang):
   XX=            -73.5239   YY=            -84.7335   ZZ=            -90.2019
   XY=              3.3974   XZ=             -2.5471   YZ=             -3.0216
 Traceless Quadrupole moment (field-independent basis, Debye-Ang):
   XX=              9.2959   YY=             -1.9138   ZZ=             -7.3821
   XY=              3.3974   XZ=             -2.5471   YZ=             -3.0216
 Octapole moment (field-independent basis, Debye-Ang**2):
  XXX=             16.7422  YYY=             35.1501  ZZZ=              3.3709  XYY=             16.5318
  XXY=             13.1811  XXZ=              4.8895  XZZ=              6.1464  YZZ=             -3.6135
  YYZ=              9.2147  XYZ=             -5.2032
 Hexadecapole moment (field-independent basis, Debye-Ang**3):
 XXXX=          -3275.8821 YYYY=           -940.5619 ZZZZ=           -320.0971 XXXY=            -42.1396
 XXXZ=            -39.0951 YYYX=             17.5940 YYYZ=            -18.5182 ZZZX=             -3.6497
 ZZZY=             -0.1562 XXYY=           -782.2843 XXZZ=           -684.1252 YYZZ=           -224.3613
 XXYZ=            -22.8476 YYXZ=              5.9630 ZZXY=              8.5293
 N-N= 9.485231376692D+02 E-N=-4.182482472549D+03  KE= 9.670397833107D+02
 No NMR shielding tensors so no spin-rotation constants.
 Leave Link  601 at Fri Sep 27 16:12:46 2013, MaxMem= 17179869184 cpu:        27.4
 (Enter /system/software/linux-x86_64/gaussian/g09/D.01__pgi_12.10__atlas/l701.exe)
 Compute integral first derivatives.
 ... and contract with generalized density number  0.
 Leave Link  701 at Fri Sep 27 16:12:49 2013, MaxMem= 17179869184 cpu:        27.2
 (Enter /system/software/linux-x86_64/gaussian/g09/D.01__pgi_12.10__atlas/l702.exe)
 L702 exits ... SP integral derivatives will be done elsewhere.
 Leave Link  702 at Fri Sep 27 16:12:49 2013, MaxMem= 17179869184 cpu:         1.5
 (Enter /system/software/linux-x86_64/gaussian/g09/D.01__pgi_12.10__atlas/l703.exe)
 Compute integral first derivatives, UseDBF=F ICtDFT=           0.
 Integral derivatives from FoFJK, PRISM(SPDF).
 Calling FoFJK, ICntrl=      2127 FMM=F ISym2X=0 I1Cent= 0 IOpClX= 0 NMat=1 NMatS=1 NMatT=0.
 FoFJK:  IHMeth= 1 ICntrl=    2127 DoSepK=F KAlg= 0 I1Cent=   0 FoldK=F
 IRaf=         0 NMat=   1 IRICut=       1 DoRegI=T DoRafI=F ISym2E= 0.
 FoFCou: FMM=F IPFlag=           0 FMFlag=      100000 FMFlg1=         800
         NFxFlg=           0 DoJE=F BraDBF=F KetDBF=F FulRan=T
         wScrn=  0.000000 ICntrl=    2127 IOpCl=  0 I1Cent=           0 NGrid=           0
         NMat0=    1 NMatS0=      1 NMatT0=    0 NMatD0=    1 NMtDS0=    0 NMtDT0=    0
 Symmetry not used in FoFCou.
 Leave Link  703 at Fri Sep 27 16:13:50 2013, MaxMem= 17179869184 cpu:      1445.6
 (Enter /system/software/linux-x86_64/gaussian/g09/D.01__pgi_12.10__atlas/l716.exe)
 Dipole        = 1.19026725D+00 1.26160925D+00 1.52325327D+00
 ***** Axes restored to original set *****
 -------------------------------------------------------------------
 Center     Atomic                   Forces (Hartrees/Bohr)
 Number     Number              X              Y              Z
 -------------------------------------------------------------------
      1        6           0.011114644   -0.015558860    0.005121769
      2        1          -0.009837240   -0.010239890    0.003685922
      3        1           0.003264111   -0.006188969   -0.012889109
      4        1          -0.004695559    0.010789181   -0.001104793
      5        6           0.008741291    0.002418462    0.007470597
      6        1           0.007122369   -0.009753514   -0.012213798
      7        1          -0.006661318   -0.012317547    0.005784011
      8        6          -0.001448060   -0.013204675   -0.031985187
      9        1           0.003822139    0.008727678   -0.009071481
     10        1           0.009465106    0.007943005   -0.007908359
     11        6          -0.017956747    0.019764286    0.025986697
     12        1           0.009395158   -0.008139874   -0.009912596
     13        6           0.022648587    0.078325178    0.004302361
     14       16           0.000047421    0.041577753    0.009618392
     15        7          -0.020864219    0.031653350    0.045055304
     16        1           0.003944332   -0.013111871    0.003837946
     17        8          -0.015224664   -0.083726865    0.003733712
     18        6          -0.014014538    0.047791873   -0.016988297
     19        6           0.013510484    0.010486498   -0.034314318
     20        1           0.008106649   -0.012326120    0.003101519
     21        1          -0.001809373    0.009460458    0.006310029
     22        1          -0.011182394   -0.006458602   -0.001010909
     23        7           0.001540264    0.006462883   -0.041058539
     24        1          -0.009660966   -0.002406910    0.008103126
     25        6          -0.019170315   -0.000918748    0.004054185
     26        1           0.005690911    0.014243045    0.003075222
     27        1           0.004414741   -0.008323697    0.008354113
     28        1           0.006738631   -0.001074268   -0.009226875
     29        8           0.012958557   -0.085893242    0.040089354
 -------------------------------------------------------------------
 Cartesian Forces:  Max     0.085893242 RMS     0.021708687
 Leave Link  716 at Fri Sep 27 16:13:55 2013, MaxMem= 17179869184 cpu:        45.8
 (Enter /system/software/linux-x86_64/gaussian/g09/D.01__pgi_12.10__atlas/l103.exe)

 GradGradGradGradGradGradGradGradGradGradGradGradGradGradGradGradGradGrad
 Berny optimization.
 FormGI is forming the generalized inverse of G from B-inverse, IUseBI=4.
 Internal  Forces:  Max     0.155623250 RMS     0.023203352
 Search for a local minimum.
 Step number   1 out of a maximum of  143
 All quantities printed in internal units (Hartrees-Bohrs-Radians)
 RMS Force = .23203D-01 SwitMx=.10000D-02 MixMth= 1
 Mixed Optimization -- RFO/linear search
 Second derivative matrix not updated -- first step.
 ITU=  0
     Eigenvalues ---    0.00237   0.00237   0.00237   0.00237   0.00448
     Eigenvalues ---    0.00448   0.00635   0.00635   0.00766   0.00766
     Eigenvalues ---    0.00766   0.00766   0.03399   0.03399   0.03840
     Eigenvalues ---    0.04828   0.04896   0.05045   0.05056   0.05786
[...]
 Alpha virt. eigenvalues --    3.29878   3.31037   3.32438   3.32750   3.33448
 Alpha virt. eigenvalues --    3.34028   3.36226   3.36642   3.37229   3.38228
 Alpha virt. eigenvalues --    3.39073   3.40748   3.40849   3.41039   3.42044
 Alpha virt. eigenvalues --    3.42774   3.43274   3.44597   3.45094   3.46311
 Alpha virt. eigenvalues --    3.48035   3.49637   3.50235   3.51006   3.52231
 Alpha virt. eigenvalues --    3.53021   3.53409   3.54458   3.55509   3.56646
 Alpha virt. eigenvalues --    3.57830   3.59589   3.59701   3.61138   3.62791
 Alpha virt. eigenvalues --    3.65344   3.66264   3.67379   3.68107   3.68629
 Alpha virt. eigenvalues --    3.70144   3.70453   3.71649   3.72420   3.73256
 Alpha virt. eigenvalues --    3.74418   3.75041   3.75797   3.77426   3.77737
 Alpha virt. eigenvalues --    3.78688   3.79640   3.80180   3.80870   3.81910
 Alpha virt. eigenvalues --    3.84665   3.85962   3.86450   3.87386   3.87595
 Alpha virt. eigenvalues --    3.89891   3.90651   3.91218   3.93089   3.94585
 Alpha virt. eigenvalues --    3.95090   3.95393   3.96559   3.96611   3.97812
 Alpha virt. eigenvalues --    3.99025   4.00429   4.02325   4.02586   4.03897
 Alpha virt. eigenvalues --    4.04538   4.04992   4.05951   4.06281   4.07818
 Alpha virt. eigenvalues --    4.08029   4.08705   4.09306   4.10901   4.11568
 Alpha virt. eigenvalues --    4.12773   4.13940   4.15925   4.16995   4.19074
 Alpha virt. eigenvalues --    4.20168   4.20617   4.20775   4.21996   4.22970
 Alpha virt. eigenvalues --    4.24039   4.25379   4.26615   4.28609   4.28998
 Alpha virt. eigenvalues --    4.29579   4.30611   4.32147   4.33604   4.34946
 Alpha virt. eigenvalues --    4.36771   4.39364   4.41112   4.43727   4.45097
 Alpha virt. eigenvalues --    4.45673   4.47201   4.50163   4.53397   4.54644
 Alpha virt. eigenvalues --    4.55984   4.56574   4.59386   4.61160   4.61709
 Alpha virt. eigenvalues --    4.62816   4.63262   4.65270   4.65717   4.67749
 Alpha virt. eigenvalues --    4.69889   4.72763   4.74037   4.74619   4.77540
 Alpha virt. eigenvalues --    4.77769   4.78510   4.80456   4.81479   4.82499
 Alpha virt. eigenvalues --    4.84599   4.84927   4.85876   4.87944   4.89194
 Alpha virt. eigenvalues --    4.89309   4.91571   4.91941   4.92900   4.93988
 Alpha virt. eigenvalues --    4.94232   4.95677   4.97336   4.98705   4.99233
 Alpha virt. eigenvalues --    5.00307   5.01633   5.01789   5.02186   5.03532
 Alpha virt. eigenvalues --    5.03944   5.06179   5.06798   5.10679   5.11574
 Alpha virt. eigenvalues --    5.12587   5.13959   5.14693   5.15316   5.16267
 Alpha virt. eigenvalues --    5.16902   5.19292   5.20427   5.22678   5.24185
 Alpha virt. eigenvalues --    5.24439   5.26953   5.27371   5.27815   5.29879
 Alpha virt. eigenvalues --    5.30063   5.31275   5.33945   5.36013   5.37053
 Alpha virt. eigenvalues --    5.38654   5.39674   5.42951   5.49123   5.51167
 Alpha virt. eigenvalues --    5.57280   5.57895   5.62457   5.66272   5.67304
 Alpha virt. eigenvalues --    5.69654   5.71049   5.72716   5.74405   5.75708
 Alpha virt. eigenvalues --    5.77530   5.78470   5.79613   5.82306   5.84113
 Alpha virt. eigenvalues --    5.87213   5.89186   5.94350   5.94834   6.00817
 Alpha virt. eigenvalues --    6.03245   6.03902   6.09308   6.25534   6.27073
 Alpha virt. eigenvalues --    6.33677   6.39821   6.48900   6.51100   6.52211
 Alpha virt. eigenvalues --    6.53037   6.62164   6.68469   6.87935   6.91353
 Alpha virt. eigenvalues --    6.91616   6.92440   7.10790   7.11768   7.15428
 Alpha virt. eigenvalues --    7.19164   9.53111   9.78069  11.84834  12.08328
 Alpha virt. eigenvalues --   12.54710  12.69986  12.86851  13.08663  13.18876
 Alpha virt. eigenvalues --   13.39104  13.63675  13.84074
          Condensed to atoms (all electrons):
               1          2          3          4          5          6
     1  C    4.965618   0.398683   0.396910   0.399613  -0.033352  -0.003680
     2  H    0.398683   0.582398  -0.042741  -0.020935  -0.004739  -0.001338
     3  H    0.396910  -0.042741   0.585556  -0.021384  -0.004231   0.007004
     4  H    0.399613  -0.020935  -0.021384   0.541205   0.004365  -0.000067
     5  C   -0.033352  -0.004739  -0.004231   0.004365   5.211036   0.407521
     6  H   -0.003680  -0.001338   0.007004  -0.000067   0.407521   0.539667
     7  H   -0.002419   0.007341  -0.001784   0.000021   0.400673  -0.043184
     8  C    0.002754   0.000042   0.000105  -0.000176   0.224911  -0.045130
     9  H   -0.000111  -0.000037   0.000047  -0.000004  -0.036437   0.005463
    10  H   -0.000029   0.000075  -0.000049  -0.000006  -0.030526  -0.003247
    11  C   -0.000364  -0.000034   0.000106   0.000006  -0.045820   0.015485
    12  H   -0.000016   0.000001  -0.000017   0.000001  -0.008988   0.001694
    13  C    0.000000  -0.000001   0.000002   0.000000   0.006336   0.001343
    14  S    0.224797  -0.044482  -0.043768  -0.023138   0.223343  -0.042841
    15  N    0.000059  -0.000038  -0.000005   0.000000   0.018444  -0.002309
    16  H    0.000002  -0.000006   0.000009   0.000000   0.000780   0.000705
    17  O    0.000000   0.000000   0.000000   0.000000   0.001036  -0.000020
    18  C   -0.000006   0.000000  -0.000006   0.000000  -0.001292  -0.000630
    19  C   -0.000004  -0.000006   0.000000   0.000000  -0.000406  -0.000024
    20  H   -0.000001   0.000001   0.000000   0.000000  -0.000070  -0.000007
    21  H    0.000001  -0.000001   0.000000   0.000000   0.000050   0.000003
    22  H    0.000009   0.000063  -0.000003   0.000000   0.000098  -0.000065
    23  N    0.000000   0.000000   0.000000   0.000000  -0.000096   0.000004
    24  H    0.000000   0.000000   0.000000   0.000000  -0.000229  -0.000017
    25  C    0.000000   0.000000   0.000000   0.000000   0.000024   0.000002
    26  H    0.000000   0.000000   0.000000   0.000000   0.000002   0.000000
    27  H    0.000000   0.000000   0.000000   0.000000  -0.000001   0.000000
    28  H    0.000000   0.000000   0.000000   0.000000   0.000006   0.000000
    29  O   -0.000003   0.000002   0.000000   0.000000  -0.001474  -0.000031
               7          8          9         10         11         12
     1  C   -0.002419   0.002754  -0.000111  -0.000029  -0.000364  -0.000016
     2  H    0.007341   0.000042  -0.000037   0.000075  -0.000034   0.000001
     3  H   -0.001784   0.000105   0.000047  -0.000049   0.000106  -0.000017
     4  H    0.000021  -0.000176  -0.000004  -0.000006   0.000006   0.000001
     5  C    0.400673   0.224911  -0.036437  -0.030526  -0.045820  -0.008988
     6  H   -0.043184  -0.045130   0.005463  -0.003247   0.015485   0.001694
     7  H    0.548690  -0.029210  -0.005378   0.004685  -0.013170   0.000425
     8  C   -0.029210   5.395779   0.404951   0.400019   0.238389  -0.030242
     9  H   -0.005378   0.404951   0.441208  -0.010279  -0.028980   0.003756
    10  H    0.004685   0.400019  -0.010279   0.449185  -0.033530  -0.003775
    11  C   -0.013170   0.238389  -0.028980  -0.033530   5.345540   0.418622
    12  H    0.000425  -0.030242   0.003756  -0.003775   0.418622   0.476836
    13  C   -0.000485  -0.085981   0.003382  -0.003925   0.231370  -0.008329
    14  S   -0.043260  -0.037143   0.001781   0.002324   0.003242   0.000170
    15  N    0.008428  -0.073977  -0.007332   0.004055   0.225185  -0.038788
    16  H   -0.001191  -0.002440  -0.000075  -0.000469  -0.023767  -0.008574
    17  O   -0.000097   0.007063   0.001124   0.018505  -0.102807  -0.001342
    18  C    0.002878  -0.015342  -0.000254   0.001107  -0.062470   0.005951
    19  C   -0.000064  -0.001940   0.000683   0.000044   0.001872  -0.000215
    20  H   -0.000145   0.000304  -0.000027   0.000002   0.001732  -0.000021
    21  H    0.000177  -0.000204  -0.000047  -0.000002  -0.000318   0.000014
    22  H    0.001463   0.000535  -0.000121   0.000002  -0.000573   0.000033
    23  N   -0.000046   0.003016  -0.000363   0.001479  -0.084499  -0.002341
    24  H    0.000001   0.002230   0.000114  -0.000180  -0.001885   0.000006
    25  C    0.000002  -0.000648  -0.000009  -0.000023   0.007953  -0.000111
    26  H    0.000000   0.000230   0.000021   0.000000   0.000282  -0.000037
    27  H    0.000000  -0.000057  -0.000001   0.000003  -0.000765   0.000087
    28  H    0.000001  -0.000431  -0.000045  -0.000119   0.004813  -0.000085
    29  O   -0.001347  -0.005740   0.014218   0.000262   0.000823  -0.000013
              13         14         15         16         17         18
     1  C    0.000000   0.224797   0.000059   0.000002   0.000000  -0.000006
     2  H   -0.000001  -0.044482  -0.000038  -0.000006   0.000000   0.000000
     3  H    0.000002  -0.043768  -0.000005   0.000009   0.000000  -0.000006
     4  H    0.000000  -0.023138   0.000000   0.000000   0.000000   0.000000
     5  C    0.006336   0.223343   0.018444   0.000780   0.001036  -0.001292
     6  H    0.001343  -0.042841  -0.002309   0.000705  -0.000020  -0.000630
     7  H   -0.000485  -0.043260   0.008428  -0.001191  -0.000097   0.002878
     8  C   -0.085981  -0.037143  -0.073977  -0.002440   0.007063  -0.015342
     9  H    0.003382   0.001781  -0.007332  -0.000075   0.001124  -0.000254
    10  H   -0.003925   0.002324   0.004055  -0.000469   0.018505   0.001107
    11  C    0.231370   0.003242   0.225185  -0.023767  -0.102807  -0.062470
    12  H   -0.008329   0.000170  -0.038788  -0.008574  -0.001342   0.005951
    13  C    4.549015  -0.000280  -0.039873   0.003433   0.734592   0.009343
    14  S   -0.000280  15.830760   0.000785   0.000065  -0.000014  -0.000295
    15  N   -0.039873   0.000785   6.676645   0.368281   0.003721   0.262585
    16  H    0.003433   0.000065   0.368281   0.526430  -0.000229  -0.012729
    17  O    0.734592  -0.000014   0.003721  -0.000229   7.812453  -0.000810
    18  C    0.009343  -0.000295   0.262585  -0.012729  -0.000810   4.676763
    19  C    0.001588   0.000029  -0.096041   0.003571  -0.000012   0.288610
    20  H   -0.000483  -0.000004   0.014560  -0.003727   0.000001  -0.055877
    21  H    0.000020   0.000000   0.006327  -0.000094   0.000000  -0.036707
    22  H   -0.000102  -0.000078  -0.003368  -0.000972   0.000001  -0.019518
    23  N    0.407221   0.000002  -0.010615  -0.000420  -0.112050   0.010148
    24  H   -0.034488   0.000000   0.024464  -0.000618   0.004915  -0.003016
    25  C   -0.053863   0.000000  -0.001599   0.000112  -0.016762  -0.000338
    26  H    0.004008   0.000000  -0.000121   0.000002   0.000205  -0.000419
    27  H    0.002261   0.000000   0.000051  -0.000006   0.000010   0.000167
    28  H   -0.014185   0.000000  -0.000396   0.000024   0.030051   0.000001
    29  O    0.016848  -0.000065  -0.129447   0.005302  -0.000337   0.727593
              19         20         21         22         23         24
     1  C   -0.000004  -0.000001   0.000001   0.000009   0.000000   0.000000
     2  H   -0.000006   0.000001  -0.000001   0.000063   0.000000   0.000000
     3  H    0.000000   0.000000   0.000000  -0.000003   0.000000   0.000000
     4  H    0.000000   0.000000   0.000000   0.000000   0.000000   0.000000
     5  C   -0.000406  -0.000070   0.000050   0.000098  -0.000096  -0.000229
     6  H   -0.000024  -0.000007   0.000003  -0.000065   0.000004  -0.000017
     7  H   -0.000064  -0.000145   0.000177   0.001463  -0.000046   0.000001
     8  C   -0.001940   0.000304  -0.000204   0.000535   0.003016   0.002230
     9  H    0.000683  -0.000027  -0.000047  -0.000121  -0.000363   0.000114
    10  H    0.000044   0.000002  -0.000002   0.000002   0.001479  -0.000180
    11  C    0.001872   0.001732  -0.000318  -0.000573  -0.084499  -0.001885
    12  H   -0.000215  -0.000021   0.000014   0.000033  -0.002341   0.000006
    13  C    0.001588  -0.000483   0.000020  -0.000102   0.407221  -0.034488
    14  S    0.000029  -0.000004   0.000000  -0.000078   0.000002   0.000000
    15  N   -0.096041   0.014560   0.006327  -0.003368  -0.010615   0.024464
    16  H    0.003571  -0.003727  -0.000094  -0.000972  -0.000420  -0.000618
    17  O   -0.000012   0.000001   0.000000   0.000001  -0.112050   0.004915
    18  C    0.288610  -0.055877  -0.036707  -0.019518   0.010148  -0.003016
    19  C    5.038847   0.392763   0.397123   0.376117   0.000114  -0.000923
    20  H    0.392763   0.597526  -0.024317  -0.030758   0.000036   0.000543
    21  H    0.397123  -0.024317   0.541524  -0.015640   0.000082  -0.000181
    22  H    0.376117  -0.030758  -0.015640   0.558668  -0.000010   0.000089
    23  N    0.000114   0.000036   0.000082  -0.000010   6.416725   0.385868
    24  H   -0.000923   0.000543  -0.000181   0.000089   0.385868   0.517284
    25  C   -0.000033  -0.000007   0.000014  -0.000001   0.275935  -0.031385
    26  H   -0.000005  -0.000009  -0.000004   0.000000  -0.041133  -0.002556
    27  H    0.000003   0.000002   0.000000   0.000000  -0.033357  -0.005115
    28  H    0.000000  -0.000001   0.000001   0.000000  -0.040857   0.004928
    29  O   -0.072791   0.003023   0.006488   0.000350  -0.008153  -0.004140
              25         26         27         28         29
     1  C    0.000000   0.000000   0.000000   0.000000  -0.000003
     2  H    0.000000   0.000000   0.000000   0.000000   0.000002
     3  H    0.000000   0.000000   0.000000   0.000000   0.000000
     4  H    0.000000   0.000000   0.000000   0.000000   0.000000
     5  C    0.000024   0.000002  -0.000001   0.000006  -0.001474
     6  H    0.000002   0.000000   0.000000   0.000000  -0.000031
     7  H    0.000002   0.000000   0.000000   0.000001  -0.001347
     8  C   -0.000648   0.000230  -0.000057  -0.000431  -0.005740
     9  H   -0.000009   0.000021  -0.000001  -0.000045   0.014218
    10  H   -0.000023   0.000000   0.000003  -0.000119   0.000262
    11  C    0.007953   0.000282  -0.000765   0.004813   0.000823
    12  H   -0.000111  -0.000037   0.000087  -0.000085  -0.000013
    13  C   -0.053863   0.004008   0.002261  -0.014185   0.016848
    14  S    0.000000   0.000000   0.000000   0.000000  -0.000065
    15  N   -0.001599  -0.000121   0.000051  -0.000396  -0.129447
    16  H    0.000112   0.000002  -0.000006   0.000024   0.005302
    17  O   -0.016762   0.000205   0.000010   0.030051  -0.000337
    18  C   -0.000338  -0.000419   0.000167   0.000001   0.727593
    19  C   -0.000033  -0.000005   0.000003   0.000000  -0.072791
    20  H   -0.000007  -0.000009   0.000002  -0.000001   0.003023
    21  H    0.000014  -0.000004   0.000000   0.000001   0.006488
    22  H   -0.000001   0.000000   0.000000   0.000000   0.000350
    23  N    0.275935  -0.041133  -0.033357  -0.040857  -0.008153
    24  H   -0.031385  -0.002556  -0.005115   0.004928  -0.004140
    25  C    4.801689   0.396437   0.402958   0.396698   0.000203
    26  H    0.396437   0.620400  -0.045820  -0.029607   0.000703
    27  H    0.402958  -0.045820   0.612453  -0.023486  -0.000018
    28  H    0.396698  -0.029607  -0.023486   0.543433   0.000015
    29  O    0.000203   0.000703  -0.000018   0.000015   7.788605
 Mulliken charges:
               1
     1  C   -0.348461
     2  H    0.125749
     3  H    0.124249
     4  H    0.120500
     5  C   -0.330963
     6  H    0.163695
     7  H    0.166994
     8  C   -0.351667
     9  H    0.212753
    10  H    0.204414
    11  C   -0.096439
    12  H    0.195296
    13  C    0.271231
    14  S   -0.051931
    15  N   -0.209681
    16  H    0.146598
    17  O   -0.379196
    18  C    0.224561
    19  C   -0.328901
    20  H    0.104960
    21  H    0.125693
    22  H    0.133783
    23  N   -0.166692
    24  H    0.144287
    25  C   -0.177246
    26  H    0.097420
    27  H    0.090632
    28  H    0.129238
    29  O   -0.340875
 Sum of Mulliken charges =   0.00000
 Mulliken charges with hydrogens summed into heavy atoms:
               1
     1  C    0.022037
     5  C   -0.000275
     8  C    0.065501
    11  C    0.098856
    13  C    0.271231
    14  S   -0.051931
    15  N   -0.063083
    17  O   -0.379196
    18  C    0.224561
    19  C    0.035535
    23  N   -0.022405
    25  C    0.140044
    29  O   -0.340875
 Electronic spatial extent (au):  <R**2>=           3800.1392
 Charge=              0.0000 electrons
 Dipole moment (field-independent basis, Debye):
    X=              0.2144    Y=              4.7854    Z=              4.8215  Tot=              6.7966
 Quadrupole moment (field-independent basis, Debye-Ang):
   XX=            -75.7923   YY=            -89.3691   ZZ=            -88.2357
   XY=              0.6930   XZ=              0.6988   YZ=              2.7534
 Traceless Quadrupole moment (field-independent basis, Debye-Ang):
   XX=              8.6734   YY=             -4.9034   ZZ=             -3.7700
   XY=              0.6930   XZ=              0.6988   YZ=              2.7534
 Octapole moment (field-independent basis, Debye-Ang**2):
  XXX=             25.2799  YYY=             47.2050  ZZZ=             12.2654  XYY=              2.0360
  XXY=             12.8505  XXZ=              7.9895  XZZ=              4.0578  YZZ=             -2.7805
  YYZ=              7.2227  XYZ=              3.8770
 Hexadecapole moment (field-independent basis, Debye-Ang**3):
 XXXX=          -3111.4840 YYYY=          -1203.2398 ZZZZ=           -285.0789 XXXY=            -48.3290
 XXXZ=            -15.7525 YYYX=             26.0610 YYYZ=             -7.6534 ZZZX=             -5.1940
 ZZZY=             12.7302 XXYY=           -819.5953 XXZZ=           -649.3440 YYZZ=           -251.5169
 XXYZ=              2.0159 YYXZ=             10.1432 ZZXY=             -2.7936
 N-N= 9.433965291694D+02 E-N=-4.172272529123D+03  KE= 9.672198916940D+02
 Calculating spin-rotation constants.
 Leave Link  601 at Sat Sep 28 12:27:25 2013, MaxMem= 17179869184 cpu:       207.9
 (Enter /system/software/linux-x86_64/gaussian/g09/D.01__pgi_12.10__atlas/l9999.exe)

 Test job not archived.
 1\1\GINC-CARIBOU\SP\RM06\Gen\C8H16N2O2S1\KUPROV\28-Sep-2013\0\\#P Geom
 =AllCheck Guess=TCheck SCRF=Check GenChk RM06/ChkBas NMR=ReadFC IOp(3/
 6=22)\\J-coupling calculation 1\\0,1\C,0,-3.4315904283,3.3958545518,-0
 .7907940976\H,0,-4.0068051035,2.9938656719,0.0436227139\H,0,-3.0366663
 345,2.5772072947,-1.3928623495\H,0,-4.0874178309,4.0032588617,-1.41015
 33728\C,0,-1.1838846753,3.2170934819,0.7591203624\H,0,-0.8421465497,2.
 4287280238,0.0779561208\H,0,-1.8758875967,2.7633551313,1.4762709896\C,
 0,-0.0152735113,3.8710892531,1.4608856616\H,0,-0.3710491611,4.58796875
 43,2.2028065876\H,0,0.5937340631,4.430273763,0.749381784\C,0,0.8935917
 153,2.8504558163,2.1326886659\H,0,1.2992865584,2.1958915974,1.35226250
 74\C,0,2.1232071328,3.5372970399,2.732520394\S,0,-2.0968485961,4.46135
 43946,-0.1983251956\N,0,0.1948729584,1.9623577946,3.0547359025\H,0,-0.
 0267709961,1.0401137918,2.7189984681\O,0,2.6083995516,4.5005935673,2.1
 823400103\C,0,-0.5486063103,2.4374693834,4.1052174006\C,0,-1.478527486
 6,1.4291559536,4.723543704\H,0,-1.0945328082,0.4104274609,4.6692224337
 \H,0,-1.6610048055,1.6996572474,5.7598727344\H,0,-2.4327003954,1.45938
 98336,4.1937905039\N,0,2.652228224,2.9421688439,3.8241592097\H,0,2.117
 2049162,2.2093072553,4.2552323027\C,0,3.7923002264,3.4883547419,4.5145
 078662\H,0,3.5092266282,3.9304992419,5.4714758198\H,0,4.5475945969,2.7
 218906899,4.6907397514\H,0,4.2187220211,4.2671357437,3.886615736\O,0,-
 0.460176053,3.5777057552,4.494111985\\Version=EM64L-G09RevD.01\State=1
 -A\HF=-972.4767124\RMSD=9.510e-09\Dipole=-0.5182977,-2.5992998,0.35379
 81\Quadrupole=1.25639,-1.0023664,-0.2540236,-0.717342,5.6953331,-1.347
 265\PG=C01 [X(C8H16N2O2S1)]\\@


 IT IS BY EATING THE LIGHT OF A STAR THAT WE EXIST, 
 IN THE FINAL ANALYSIS, 
 JUST AS IT IS BY PERCEIVING THE LIGHT OF STARS
 THAT WE DEFINE THE WORLD AROUND US.

                                    -- GILBERT GROSVENOR
 Job cpu time:       5 days 12 hours 52 minutes 48.4 seconds.
 File lengths (MBytes):  RWF=   2028 Int=      0 D2E=      0 Chk=     55 Scr=      1
 Normal termination of Gaussian 09 at Sat Sep 28 12:27:26 2013.
