 Entering Gaussian System, Link 0=g09
 Input=phenylalanine.gjf
 Output=phenylalanine.log
 Initial command:
 /system/software/linux-x86_64/gaussian/g09/A.02__pgi_8.0-6__acml/l1.exe /export/home/spin_dynamics/kuprov/zenawi/Gau-39178.inp -scrdir=/export/home/spin_dynamics/kuprov/zenawi/
 Entering Link 1 = /system/software/linux-x86_64/gaussian/g09/A.02__pgi_8.0-6__acml/l1.exe PID=     39179.
  
 Copyright (c) 1988,1990,1992,1993,1995,1998,2003,2009, Gaussian, Inc.
                  All Rights Reserved.
  
 This is part of the Gaussian(R) 09 program.  It is based on
 the Gaussian(R) 03 system (copyright 2003, Gaussian, Inc.),
 the Gaussian(R) 98 system (copyright 1998, Gaussian, Inc.),
 the Gaussian(R) 94 system (copyright 1995, Gaussian, Inc.),
 the Gaussian 92(TM) system (copyright 1992, Gaussian, Inc.),
 the Gaussian 90(TM) system (copyright 1990, Gaussian, Inc.),
 the Gaussian 88(TM) system (copyright 1988, Gaussian, Inc.),
 the Gaussian 86(TM) system (copyright 1986, Carnegie Mellon
 University), and the Gaussian 82(TM) system (copyright 1983,
 Carnegie Mellon University). Gaussian is a federally registered
 trademark of Gaussian, Inc.
  
 This software contains proprietary and confidential information,
 including trade secrets, belonging to Gaussian, Inc.
  
 This software is provided under written license and may be
 used, copied, transmitted, or stored only in accord with that
 written license.
  
 The following legend is applicable only to US Government
 contracts under FAR:
  
                    RESTRICTED RIGHTS LEGEND
  
 Use, reproduction and disclosure by the US Government is
 subject to restrictions as set forth in subparagraphs (a)
 and (c) of the Commercial Computer Software - Restricted
 Rights clause in FAR 52.227-19.
  
 Gaussian, Inc.
 340 Quinnipiac St., Bldg. 40, Wallingford CT 06492
  
  
 ---------------------------------------------------------------
 Warning -- This program may not be used in any manner that
 competes with the business of Gaussian, Inc. or will provide
 assistance to any competitor of Gaussian, Inc.  The licensee
 of this program is prohibited from giving any competitor of
 Gaussian, Inc. access to this program.  By using this program,
 the user acknowledges that Gaussian, Inc. is engaged in the
 business of creating and licensing software in the field of
 computational chemistry and represents and warrants to the
 licensee that it is not a competitor of Gaussian, Inc. and that
 it will not use this program in any manner prohibited above.
 ---------------------------------------------------------------
  

 Cite this work as:
 Gaussian 09, Revision A.02,
 M. J. Frisch, G. W. Trucks, H. B. Schlegel, G. E. Scuseria, 
 M. A. Robb, J. R. Cheeseman, G. Scalmani, V. Barone, B. Mennucci, 
 G. A. Petersson, H. Nakatsuji, M. Caricato, X. Li, H. P. Hratchian, 
 A. F. Izmaylov, J. Bloino, G. Zheng, J. L. Sonnenberg, M. Hada, 
 M. Ehara, K. Toyota, R. Fukuda, J. Hasegawa, M. Ishida, T. Nakajima, 
 Y. Honda, O. Kitao, H. Nakai, T. Vreven, J. A. Montgomery, Jr., 
 J. E. Peralta, F. Ogliaro, M. Bearpark, J. J. Heyd, E. Brothers, 
 K. N. Kudin, V. N. Staroverov, R. Kobayashi, J. Normand, 
 K. Raghavachari, A. Rendell, J. C. Burant, S. S. Iyengar, J. Tomasi, 
 M. Cossi, N. Rega, J. M. Millam, M. Klene, J. E. Knox, J. B. Cross, 
 V. Bakken, C. Adamo, J. Jaramillo, R. Gomperts, R. E. Stratmann, 
 O. Yazyev, A. J. Austin, R. Cammi, C. Pomelli, J. W. Ochterski, 
 R. L. Martin, K. Morokuma, V. G. Zakrzewski, G. A. Voth, 
 P. Salvador, J. J. Dannenberg, S. Dapprich, A. D. Daniels, 
 O. Farkas, J. B. Foresman, J. V. Ortiz, J. Cioslowski, 
 and D. J. Fox, Gaussian, Inc., Wallingford CT, 2009.
 
 ******************************************
 Gaussian 09:  EM64L-G09RevA.02 11-Jun-2009
                27-Mar-2013 
 ******************************************
 %Chk=phenylalanine.chk
 %Mem=32GB
 %NProcShared=24
 Will use up to   24 processors via shared memory.
 ------------------------------------------------------------
 #p opt=tight m06/cc-pvtz scf=tight integral=(grid=ultrafine)
 ------------------------------------------------------------
 1/7=10,14=-1,18=20,19=15,26=3,38=1/1,3;
 2/9=110,12=2,17=6,18=5,40=1/2;
 3/5=16,6=1,11=2,16=1,25=1,30=1,71=1,74=-54,75=-5/1,2,3;
 4//1;
 5/5=2,32=2,38=5/2;
 6/7=2,8=2,9=2,10=2,28=1/1;
 7//1,2,3,16;
 1/7=10,14=-1,18=20,19=15/3(2);
 2/9=110/2;
 99//99;
 2/9=110/2;
 3/5=16,6=1,11=2,16=1,25=1,30=1,71=1,74=-54,75=-5/1,2,3;
 4/5=5,16=3/1;
 5/5=2,32=2,38=5/2;
 7//1,2,3,16;
 1/7=10,14=-1,18=20,19=15/3(-5);
 2/9=110/2;
 6/7=2,8=2,9=2,10=2,19=2,28=1/1;
 99/9=1/99;
 Leave Link    1 at Wed Mar 27 18:07:04 2013, MaxMem= 4294967296 cpu:       1.6
 (Enter /system/software/linux-x86_64/gaussian/g09/A.02__pgi_8.0-6__acml/l101.exe)
 ---------------------
 Geometry optimisation
 ---------------------
 Symbolic Z-matrix:
 Charge =  0 Multiplicity = 1
 C                     0.83169   1.77218   1.01838 
 O                     0.67259   2.93942   0.57586 
 N                    -1.07894   0.36501   0.37725 
 H                    -1.56988   1.18378   0.07961 
 N                     1.46292   1.56282   2.32934 
 H                     2.45208   1.47371   2.2126 
 C                    -1.52431  -0.78914  -0.41679 
 C                    -1.51054  -2.19991   0.20057 
 H                    -0.5643   -2.6625    0.01207 
 H                    -1.66873  -2.12875   1.25642 
 H                    -2.28903  -2.78869  -0.23783 
 C                     1.17384   2.71047   3.20126 
 H                     1.6333    2.55808   4.15549 
 H                     1.56235   3.60287   2.75677 
 H                     0.11544   2.80582   3.32616 
 O                    -1.91682  -0.62435  -1.601 
 C                     0.36511   0.56308   0.18653 
 H                     0.89042  -0.31301   0.505 
 C                     0.65531   0.82239  -1.30349 
 H                     0.33113  -0.0177   -1.88146 
 H                     0.13      1.69848  -1.62196 
 C                     2.16813   1.02989  -1.50329 
 C                     2.99616  -0.06772  -1.77445 
 C                     2.71676   2.31634  -1.41396 
 C                     4.37282   0.12111  -1.95627 
 H                     2.57726  -1.04995  -1.84266 
 C                     4.09343   2.50517  -1.59578 
 H                     2.08454   3.15439  -1.20692 
 C                     4.92146   1.40755  -1.86694 
 H                     5.00504  -0.71695  -2.1633 
 H                     4.51232   3.4874   -1.52757 
 H                     5.97257   1.55173  -2.00576 
 
 NAtoms=     32 NQM=     32 NQMF=      0 NMic=      0 NMicF=      0 NTot=     32.
                    Isotopes and Nuclear Properties:
 (Nuclear quadrupole moments (NQMom) in fm**2, nuclear magnetic moments (NMagM)
  in nuclear magnetons)

  Atom         1           2           3           4           5           6           7           8           9          10
 IAtWgt=          12          16          14           1          14           1          12          12           1           1
 AtmWgt=  12.0000000  15.9949146  14.0030740   1.0078250  14.0030740   1.0078250  12.0000000  12.0000000   1.0078250   1.0078250
 NucSpn=           0           0           2           1           2           1           0           0           1           1
 AtZEff=   0.0000000   0.0000000   0.0000000   0.0000000   0.0000000   0.0000000   0.0000000   0.0000000   0.0000000   0.0000000
 NQMom=    0.0000000   0.0000000   2.0440000   0.0000000   2.0440000   0.0000000   0.0000000   0.0000000   0.0000000   0.0000000
 NMagM=    0.0000000   0.0000000   0.4037610   2.7928460   0.4037610   2.7928460   0.0000000   0.0000000   2.7928460   2.7928460

  Atom        11          12          13          14          15          16          17          18          19          20
 IAtWgt=           1          12           1           1           1          16          12           1          12           1
 AtmWgt=   1.0078250  12.0000000   1.0078250   1.0078250   1.0078250  15.9949146  12.0000000   1.0078250  12.0000000   1.0078250
 NucSpn=           1           0           1           1           1           0           0           1           0           1
 AtZEff=   0.0000000   0.0000000   0.0000000   0.0000000   0.0000000   0.0000000   0.0000000   0.0000000   0.0000000   0.0000000
 NQMom=    0.0000000   0.0000000   0.0000000   0.0000000   0.0000000   0.0000000   0.0000000   0.0000000   0.0000000   0.0000000
 NMagM=    2.7928460   0.0000000   2.7928460   2.7928460   2.7928460   0.0000000   0.0000000   2.7928460   0.0000000   2.7928460

  Atom        21          22          23          24          25          26          27          28          29          30
 IAtWgt=           1          12          12          12          12           1          12           1          12           1
 AtmWgt=   1.0078250  12.0000000  12.0000000  12.0000000  12.0000000   1.0078250  12.0000000   1.0078250  12.0000000   1.0078250
 NucSpn=           1           0           0           0           0           1           0           1           0           1
 AtZEff=   0.0000000   0.0000000   0.0000000   0.0000000   0.0000000   0.0000000   0.0000000   0.0000000   0.0000000   0.0000000
 NQMom=    0.0000000   0.0000000   0.0000000   0.0000000   0.0000000   0.0000000   0.0000000   0.0000000   0.0000000   0.0000000
 NMagM=    2.7928460   0.0000000   0.0000000   0.0000000   0.0000000   2.7928460   0.0000000   2.7928460   0.0000000   2.7928460

  Atom        31          32
 IAtWgt=           1           1
 AtmWgt=   1.0078250   1.0078250
 NucSpn=           1           1
 AtZEff=   0.0000000   0.0000000
 NQMom=    0.0000000   0.0000000
 NMagM=    2.7928460   2.7928460
 Leave Link  101 at Wed Mar 27 18:07:05 2013, MaxMem= 4294967296 cpu:       4.8
 (Enter /system/software/linux-x86_64/gaussian/g09/A.02__pgi_8.0-6__acml/l103.exe)

 GradGradGradGradGradGradGradGradGradGradGradGradGradGradGradGradGradGrad
 Berny optimization.
 Initialization pass.
                           ----------------------------
                           !    Initial Parameters    !
                           ! (Angstroms and Degrees)  !
 --------------------------                            --------------------------
 ! Name  Definition              Value          Derivative Info.                !
 --------------------------------------------------------------------------------
 ! R1    R(1,2)                  1.2584         estimate D2E/DX2                !
 ! R2    R(1,5)                  1.47           estimate D2E/DX2                !
 ! R3    R(1,17)                 1.54           estimate D2E/DX2                !
 ! R4    R(3,4)                  1.0            estimate D2E/DX2                !
 ! R5    R(3,7)                  1.47           estimate D2E/DX2                !
 ! R6    R(3,17)                 1.47           estimate D2E/DX2                !
 ! R7    R(5,6)                  1.0            estimate D2E/DX2                !
 ! R8    R(5,12)                 1.47           estimate D2E/DX2                !
 ! R9    R(7,8)                  1.54           estimate D2E/DX2                !
 ! R10   R(7,16)                 1.2584         estimate D2E/DX2                !
 ! R11   R(8,9)                  1.07           estimate D2E/DX2                !
 ! R12   R(8,10)                 1.07           estimate D2E/DX2                !
 ! R13   R(8,11)                 1.07           estimate D2E/DX2                !
 ! R14   R(12,13)                1.07           estimate D2E/DX2                !
 ! R15   R(12,14)                1.07           estimate D2E/DX2                !
 ! R16   R(12,15)                1.07           estimate D2E/DX2                !
 ! R17   R(17,18)                1.07           estimate D2E/DX2                !
 ! R18   R(17,19)                1.54           estimate D2E/DX2                !
 ! R19   R(19,20)                1.07           estimate D2E/DX2                !
 ! R20   R(19,21)                1.07           estimate D2E/DX2                !
 ! R21   R(19,22)                1.54           estimate D2E/DX2                !
 ! R22   R(22,23)                1.4014         estimate D2E/DX2                !
 ! R23   R(22,24)                1.4014         estimate D2E/DX2                !
 ! R24   R(23,25)                1.4014         estimate D2E/DX2                !
 ! R25   R(23,26)                1.07           estimate D2E/DX2                !
 ! R26   R(24,27)                1.4014         estimate D2E/DX2                !
 ! R27   R(24,28)                1.07           estimate D2E/DX2                !
 ! R28   R(25,29)                1.4014         estimate D2E/DX2                !
 ! R29   R(25,30)                1.07           estimate D2E/DX2                !
 ! R30   R(27,29)                1.4014         estimate D2E/DX2                !
 ! R31   R(27,31)                1.07           estimate D2E/DX2                !
 ! R32   R(29,32)                1.07           estimate D2E/DX2                !
 ! A1    A(2,1,5)              120.0            estimate D2E/DX2                !
 ! A2    A(2,1,17)             120.0            estimate D2E/DX2                !
 ! A3    A(5,1,17)             120.0            estimate D2E/DX2                !
 ! A4    A(4,3,7)              109.4712         estimate D2E/DX2                !
 ! A5    A(4,3,17)             109.4712         estimate D2E/DX2                !
 ! A6    A(7,3,17)             109.4712         estimate D2E/DX2                !
 ! A7    A(1,5,6)              109.4712         estimate D2E/DX2                !
 ! A8    A(1,5,12)             109.4712         estimate D2E/DX2                !
 ! A9    A(6,5,12)             109.4712         estimate D2E/DX2                !
 ! A10   A(3,7,8)              120.0            estimate D2E/DX2                !
 ! A11   A(3,7,16)             120.0            estimate D2E/DX2                !
 ! A12   A(8,7,16)             120.0            estimate D2E/DX2                !
 ! A13   A(7,8,9)              109.4712         estimate D2E/DX2                !
 ! A14   A(7,8,10)             109.4712         estimate D2E/DX2                !
 ! A15   A(7,8,11)             109.4712         estimate D2E/DX2                !
 ! A16   A(9,8,10)             109.4712         estimate D2E/DX2                !
 ! A17   A(9,8,11)             109.4712         estimate D2E/DX2                !
 ! A18   A(10,8,11)            109.4712         estimate D2E/DX2                !
 ! A19   A(5,12,13)            109.4712         estimate D2E/DX2                !
 ! A20   A(5,12,14)            109.4712         estimate D2E/DX2                !
 ! A21   A(5,12,15)            109.4712         estimate D2E/DX2                !
 ! A22   A(13,12,14)           109.4712         estimate D2E/DX2                !
 ! A23   A(13,12,15)           109.4712         estimate D2E/DX2                !
 ! A24   A(14,12,15)           109.4712         estimate D2E/DX2                !
 ! A25   A(1,17,3)             109.4712         estimate D2E/DX2                !
 ! A26   A(1,17,18)            109.4712         estimate D2E/DX2                !
 ! A27   A(1,17,19)            109.4712         estimate D2E/DX2                !
 ! A28   A(3,17,18)            109.4712         estimate D2E/DX2                !
 ! A29   A(3,17,19)            109.4712         estimate D2E/DX2                !
 ! A30   A(18,17,19)           109.4712         estimate D2E/DX2                !
 ! A31   A(17,19,20)           109.4712         estimate D2E/DX2                !
 ! A32   A(17,19,21)           109.4712         estimate D2E/DX2                !
 ! A33   A(17,19,22)           109.4712         estimate D2E/DX2                !
 ! A34   A(20,19,21)           109.4712         estimate D2E/DX2                !
 ! A35   A(20,19,22)           109.4712         estimate D2E/DX2                !
 ! A36   A(21,19,22)           109.4712         estimate D2E/DX2                !
 ! A37   A(19,22,23)           120.0            estimate D2E/DX2                !
 ! A38   A(19,22,24)           120.0            estimate D2E/DX2                !
 ! A39   A(23,22,24)           120.0            estimate D2E/DX2                !
 ! A40   A(22,23,25)           120.0            estimate D2E/DX2                !
 ! A41   A(22,23,26)           120.0            estimate D2E/DX2                !
 ! A42   A(25,23,26)           120.0            estimate D2E/DX2                !
 ! A43   A(22,24,27)           120.0            estimate D2E/DX2                !
 ! A44   A(22,24,28)           120.0            estimate D2E/DX2                !
 ! A45   A(27,24,28)           120.0            estimate D2E/DX2                !
 ! A46   A(23,25,29)           120.0            estimate D2E/DX2                !
 ! A47   A(23,25,30)           120.0            estimate D2E/DX2                !
 ! A48   A(29,25,30)           120.0            estimate D2E/DX2                !
 ! A49   A(24,27,29)           120.0            estimate D2E/DX2                !
 ! A50   A(24,27,31)           120.0            estimate D2E/DX2                !
 ! A51   A(29,27,31)           120.0            estimate D2E/DX2                !
 ! A52   A(25,29,27)           120.0            estimate D2E/DX2                !
 ! A53   A(25,29,32)           120.0            estimate D2E/DX2                !
 ! A54   A(27,29,32)           120.0            estimate D2E/DX2                !
 ! D1    D(2,1,5,6)            -90.0            estimate D2E/DX2                !
 ! D2    D(2,1,5,12)            30.0            estimate D2E/DX2                !
 ! D3    D(17,1,5,6)            90.0            estimate D2E/DX2                !
 ! D4    D(17,1,5,12)         -150.0            estimate D2E/DX2                !
 ! D5    D(2,1,17,3)           -81.53           estimate D2E/DX2                !
 ! D6    D(2,1,17,18)          158.47           estimate D2E/DX2                !
 ! D7    D(2,1,17,19)           38.47           estimate D2E/DX2                !
 ! D8    D(5,1,17,3)            98.47           estimate D2E/DX2                !
 ! D9    D(5,1,17,18)          -21.53           estimate D2E/DX2                !
 ! D10   D(5,1,17,19)         -141.53           estimate D2E/DX2                !
 ! D11   D(4,3,7,8)           -150.0            estimate D2E/DX2                !
 ! D12   D(4,3,7,16)            30.0            estimate D2E/DX2                !
 ! D13   D(17,3,7,8)            90.0            estimate D2E/DX2                !
 ! D14   D(17,3,7,16)          -90.0            estimate D2E/DX2                !
 ! D15   D(4,3,17,1)            60.0            estimate D2E/DX2                !
 ! D16   D(4,3,17,18)          180.0            estimate D2E/DX2                !
 ! D17   D(4,3,17,19)          -60.0            estimate D2E/DX2                !
 ! D18   D(7,3,17,1)           180.0            estimate D2E/DX2                !
 ! D19   D(7,3,17,18)          -60.0            estimate D2E/DX2                !
 ! D20   D(7,3,17,19)           60.0            estimate D2E/DX2                !
 ! D21   D(1,5,12,13)          180.0            estimate D2E/DX2                !
 ! D22   D(1,5,12,14)          -60.0            estimate D2E/DX2                !
 ! D23   D(1,5,12,15)           60.0            estimate D2E/DX2                !
 ! D24   D(6,5,12,13)          -60.0            estimate D2E/DX2                !
 ! D25   D(6,5,12,14)           60.0            estimate D2E/DX2                !
 ! D26   D(6,5,12,15)         -180.0            estimate D2E/DX2                !
 ! D27   D(3,7,8,9)            -90.0            estimate D2E/DX2                !
 ! D28   D(3,7,8,10)            30.0            estimate D2E/DX2                !
 ! D29   D(3,7,8,11)           150.0            estimate D2E/DX2                !
 ! D30   D(16,7,8,9)            90.0            estimate D2E/DX2                !
 ! D31   D(16,7,8,10)         -150.0            estimate D2E/DX2                !
 ! D32   D(16,7,8,11)          -30.0            estimate D2E/DX2                !
 ! D33   D(1,17,19,20)         180.0            estimate D2E/DX2                !
 ! D34   D(1,17,19,21)         -60.0            estimate D2E/DX2                !
 ! D35   D(1,17,19,22)          60.0            estimate D2E/DX2                !
 ! D36   D(3,17,19,20)         -60.0            estimate D2E/DX2                !
 ! D37   D(3,17,19,21)          60.0            estimate D2E/DX2                !
 ! D38   D(3,17,19,22)         180.0            estimate D2E/DX2                !
 ! D39   D(18,17,19,20)         60.0            estimate D2E/DX2                !
 ! D40   D(18,17,19,21)       -180.0            estimate D2E/DX2                !
 ! D41   D(18,17,19,22)        -60.0            estimate D2E/DX2                !
 ! D42   D(17,19,22,23)         90.0            estimate D2E/DX2                !
 ! D43   D(17,19,22,24)        -90.0            estimate D2E/DX2                !
 ! D44   D(20,19,22,23)        -30.0            estimate D2E/DX2                !
 ! D45   D(20,19,22,24)        150.0            estimate D2E/DX2                !
 ! D46   D(21,19,22,23)       -150.0            estimate D2E/DX2                !
 ! D47   D(21,19,22,24)         30.0            estimate D2E/DX2                !
 ! D48   D(19,22,23,25)       -179.9999         estimate D2E/DX2                !
 ! D49   D(19,22,23,26)          0.0001         estimate D2E/DX2                !
 ! D50   D(24,22,23,25)          0.0001         estimate D2E/DX2                !
 ! D51   D(24,22,23,26)       -179.9999         estimate D2E/DX2                !
 ! D52   D(19,22,24,27)        179.9999         estimate D2E/DX2                !
 ! D53   D(19,22,24,28)         -0.0001         estimate D2E/DX2                !
 ! D54   D(23,22,24,27)         -0.0001         estimate D2E/DX2                !
 ! D55   D(23,22,24,28)        179.9999         estimate D2E/DX2                !
 ! D56   D(22,23,25,29)         -0.0001         estimate D2E/DX2                !
 ! D57   D(22,23,25,30)        179.9999         estimate D2E/DX2                !
 ! D58   D(26,23,25,29)        179.9999         estimate D2E/DX2                !
 ! D59   D(26,23,25,30)         -0.0001         estimate D2E/DX2                !
 ! D60   D(22,24,27,29)          0.0001         estimate D2E/DX2                !
 ! D61   D(22,24,27,31)       -179.9999         estimate D2E/DX2                !
 ! D62   D(28,24,27,29)       -179.9999         estimate D2E/DX2                !
 ! D63   D(28,24,27,31)          0.0002         estimate D2E/DX2                !
 ! D64   D(23,25,29,27)          0.0001         estimate D2E/DX2                !
 ! D65   D(23,25,29,32)       -179.9998         estimate D2E/DX2                !
 ! D66   D(30,25,29,27)       -179.9999         estimate D2E/DX2                !
 ! D67   D(30,25,29,32)          0.0002         estimate D2E/DX2                !
 ! D68   D(24,27,29,25)         -0.0001         estimate D2E/DX2                !
 ! D69   D(24,27,29,32)        179.9998         estimate D2E/DX2                !
 ! D70   D(31,27,29,25)        179.9999         estimate D2E/DX2                !
 ! D71   D(31,27,29,32)         -0.0002         estimate D2E/DX2                !
 --------------------------------------------------------------------------------
 Trust Radius=3.00D-01 FncErr=1.00D-07 GrdErr=1.00D-06
 Number of steps in this run= 167 maximum allowed number of steps= 192.
 GradGradGradGradGradGradGradGradGradGradGradGradGradGradGradGradGradGrad

 Leave Link  103 at Wed Mar 27 18:07:05 2013, MaxMem= 4294967296 cpu:       0.4
 (Enter /system/software/linux-x86_64/gaussian/g09/A.02__pgi_8.0-6__acml/l202.exe)
                          Input orientation:                          
 ---------------------------------------------------------------------
 Center     Atomic      Atomic             Coordinates (Angstroms)
 Number     Number       Type             X           Y           Z
 ---------------------------------------------------------------------
      1          6           0        0.831691    1.772182    1.018377
      2          8           0        0.672588    2.939416    0.575863
      3          7           0       -1.078940    0.365006    0.377251
      4          1           0       -1.569879    1.183780    0.079614
      5          7           0        1.462918    1.562821    2.329339
      6          1           0        2.452075    1.473710    2.212602
      7          6           0       -1.524310   -0.789139   -0.416788
      8          6           0       -1.510544   -2.199912    0.200569
      9          1           0       -0.564301   -2.662505    0.012067
     10          1           0       -1.668733   -2.128752    1.256416
     11          1           0       -2.289032   -2.788691   -0.237832
     12          6           0        1.173836    2.710468    3.201255
     13          1           0        1.633300    2.558076    4.155493
     14          1           0        1.562350    3.602874    2.756769
     15          1           0        0.115438    2.805816    3.326164
     16          8           0       -1.916819   -0.624346   -1.600996
     17          6           0        0.365114    0.563078    0.186528
     18          1           0        0.890419   -0.313011    0.504999
     19          6           0        0.655309    0.822391   -1.303487
     20          1           0        0.331129   -0.017701   -1.881460
     21          1           0        0.130005    1.698479   -1.621958
     22          6           0        2.168128    1.029895   -1.503292
     23          6           0        2.996158   -0.067722   -1.774449
     24          6           0        2.716763    2.316340   -1.413957
     25          6           0        4.372823    0.121106   -1.956270
     26          1           0        2.577263   -1.049951   -1.842659
     27          6           0        4.093428    2.505168   -1.595778
     28          1           0        2.084543    3.154395   -1.206924
     29          6           0        4.921458    1.407552   -1.866935
     30          1           0        5.005043   -0.716948   -2.163302
     31          1           0        4.512323    3.487397   -1.527567
     32          1           0        5.972572    1.551727   -2.005762
 ---------------------------------------------------------------------
                    Distance matrix (angstroms):
                    1          2          3          4          5
     1  C    0.000000
     2  O    1.258400   0.000000
     3  N    2.457987   3.120078   0.000000
     4  H    2.644813   2.890878   1.000000   0.000000
     5  N    1.470000   2.365231   3.421469   3.795101   0.000000
     6  H    2.034920   2.827328   4.131078   4.561777   1.000000
     7  C    3.764412   4.440026   1.470000   2.034920   4.690038
     8  C    4.683204   5.596392   2.606971   3.386373   5.247027
     9  H    4.756879   5.764485   3.092577   3.976136   5.228073
    10  H    4.639620   5.624168   2.709173   3.516746   4.958439
    11  H    5.667321   6.499577   3.433431   4.049503   6.293103
    12  C    2.400500   2.682602   4.307110   4.427572   1.470000
    13  H    3.331921   3.725875   5.142073   5.363006   2.086720
    14  H    2.628174   2.447081   4.808566   4.778078   2.086720
    15  H    2.628174   2.809346   4.010011   4.001423   2.086720
    16  O    4.489852   4.913669   2.365231   2.492817   5.626176
    17  C    1.540000   2.427572   1.470000   2.034920   2.606971
    18  H    2.148263   3.260484   2.086720   2.911082   2.678566
    19  C    2.514809   2.830910   2.457987   2.644813   3.794456
    20  H    3.444314   3.859996   2.690081   2.983823   4.637869
    21  H    2.732978   2.581615   2.690081   2.459648   4.172267
    22  C    2.948875   3.194651   3.810770   4.062261   3.933242
    23  C    3.983722   4.468313   4.628551   5.084535   4.674459
    24  C    3.125036   2.919976   4.628551   4.678541   4.018978
    25  C    4.910620   5.295876   5.935194   6.371013   5.377037
    26  H    4.381436   5.039056   4.505322   5.087581   5.047169
    27  C    4.243819   4.075137   5.935194   6.051946   4.818106
    28  H    2.903811   2.284330   4.505322   4.346643   3.927427
    29  C    5.018383   5.134858   6.490612   6.780603   5.440067
    30  H    5.808245   6.296205   6.681308   7.202294   6.158557
    31  H    4.792791   4.412286   6.681308   6.699467   5.280018
    32  H    5.968473   6.056426   7.537299   7.834076   6.255414
                    6          7          8          9         10
     6  H    0.000000
     7  C    5.276913   0.000000
     8  C    5.765945   1.540000   0.000000
     9  H    5.572177   2.148263   1.070000   0.000000
    10  H    5.556356   2.148263   1.070000   1.747303   0.000000
    11  H    6.830138   2.148263   1.070000   1.747303   1.747303
    12  C    2.034920   5.711171   6.349948   6.485436   5.939752
    13  H    2.370879   6.486917   6.940001   7.017969   6.424518
    14  H    2.370879   6.236080   7.046215   7.163170   6.748518
    15  H    2.911082   5.442624   6.121313   6.430227   5.640664
    16  O    6.167058   1.258400   2.427572   2.930080   3.238764
    17  C    3.047890   2.400500   3.339521   3.361344   3.539371
    18  H    2.923534   2.628174   3.068826   2.807012   3.226578
    19  C    4.001932   2.852017   4.010912   3.919519   4.545715
    20  H    4.846036   2.486571   3.533928   3.373756   4.278113
    21  H    4.488472   3.221402   4.605481   4.708533   5.115486
    22  C    3.753060   4.257167   5.183379   4.836972   5.684588
    23  C    4.309131   4.774758   5.362582   4.754094   5.932554
    24  C    3.732561   5.350237   6.393226   6.130891   6.791341
    25  C    4.785217   6.162363   6.682296   5.999837   7.203028
    26  H    4.778041   4.350176   4.712468   3.988705   5.366243
    27  C    4.273371   6.618266   7.534530   7.140340   7.925322
    28  H    3.827915   5.403664   6.601082   6.506815   6.933020
    29  C    4.769156   6.962492   7.658917   7.084459   8.105022
    30  H    5.519526   6.759287   7.088013   6.287688   7.630659
    31  H    4.721061   7.480877   8.462084   8.121815   8.803247
    32  H    5.494959   8.012972   8.656772   8.035054   9.087204
                   11         12         13         14         15
    11  H    0.000000
    12  C    7.352518   0.000000
    13  H    7.954489   1.070000   0.000000
    14  H    8.040701   1.070000   1.747303   0.000000
    15  H    7.055639   1.070000   1.747303   1.747303   0.000000
    16  O    2.584792   6.613225   7.474511   6.997436   6.338217
    17  C    4.296385   3.788654   4.619632   4.156906   3.866462
    18  H    4.097523   4.060979   4.703309   4.566849   4.276289
    19  C    4.779610   4.911864   5.811155   5.003947   5.065482
    20  H    4.152727   5.829842   6.691418   6.011458   5.927742
    21  H    5.282257   5.037568   6.031396   4.985136   5.070535
    22  C    6.004103   5.093693   5.885849   5.013512   5.539953
    23  C    6.139877   5.983045   6.626945   6.005082   6.524724
    24  C    7.245866   4.882227   5.679005   4.514730   5.429109
    25  C    7.469957   6.598361   7.127233   6.498784   7.296376
    26  H    5.411054   6.446040   7.063055   6.620692   6.902482
    27  C    8.402663   5.619403   6.255569   5.153249   6.335638
    28  H    7.442282   4.523108   5.414308   4.023019   4.954571
    29  C    8.500211   6.436522   6.957394   6.122229   7.212576
    30  H    7.823239   7.429926   7.875379   7.397303   8.151831
    31  H    9.344042   5.840451   6.438134   5.203000   6.584516
    32  H    9.498363   7.175206   7.602834   6.807273   8.019239
                   16         17         18         19         20
    16  O    0.000000
    17  C    3.132481   0.000000
    18  H    3.523170   1.070000   0.000000
    19  C    2.966041   1.540000   2.148263   0.000000
    20  H    2.345196   2.148263   2.468846   1.070000   0.000000
    21  H    3.096036   2.148263   3.024610   1.070000   1.747303
    22  C    4.408270   2.514809   2.732978   1.540000   2.148263
    23  C    4.947449   3.341516   3.112906   2.548270   2.667646
    24  C    5.491147   3.341516   3.732480   2.548270   3.370097
    25  C    6.343620   4.566032   4.286425   3.838989   4.044769
    26  H    4.520654   3.407795   2.983291   2.736837   2.472279
    27  C    6.776205   4.566032   4.755488   3.838989   4.538874
    28  H    5.517705   3.407795   4.047161   2.736837   3.686686
    29  C    7.138722   5.068542   4.983541   4.342800   4.806524
    30  H    6.945281   5.356221   4.920684   4.693509   4.734327
    31  H    7.631886   5.356221   5.629619   4.693509   5.467480
    32  H    8.193998   6.101405   5.967365   5.412800   5.856999
                   21         22         23         24         25
    21  H    0.000000
    22  C    2.148263   0.000000
    23  C    3.370097   1.401400   0.000000
    24  C    2.667646   1.401400   2.427296   0.000000
    25  C    4.538874   2.427296   1.401400   2.802800   0.000000
    26  H    3.686686   2.146700   1.070000   3.396345   2.146700
    27  C    4.044769   2.427296   2.802800   1.401400   2.427296
    28  H    2.472279   2.146700   3.396345   1.070000   3.872800
    29  C    4.806524   2.802800   2.427296   2.427296   1.401400
    30  H    5.467480   3.396345   2.146700   3.872800   1.070000
    31  H    4.734327   3.396345   3.872800   2.146700   3.396345
    32  H    5.856999   3.872800   3.396345   3.396345   2.146700
                   26         27         28         29         30
    26  H    0.000000
    27  C    3.872800   0.000000
    28  H    4.280590   2.146700   0.000000
    29  C    3.396345   1.401400   3.396345   0.000000
    30  H    2.471400   3.396345   4.942800   2.146700   0.000000
    31  H    4.942800   1.070000   2.471400   2.146700   4.280590
    32  H    4.280590   2.146700   4.280590   1.070000   2.471400
                   31         32
    31  H    0.000000
    32  H    2.471400   0.000000
 Stoichiometry    C12H16N2O2
 Framework group  C1[X(C12H16N2O2)]
 Deg. of freedom    90
 Full point group                 C1      NOp   1
 Largest Abelian subgroup         C1      NOp   1
 Largest concise Abelian subgroup C1      NOp   1
                         Standard orientation:                         
 ---------------------------------------------------------------------
 Center     Atomic      Atomic             Coordinates (Angstroms)
 Number     Number       Type             X           Y           Z
 ---------------------------------------------------------------------
      1          6           0       -0.337322    1.558640   -0.081753
      2          8           0        0.060661    1.920141   -1.219513
      3          7           0       -2.393869    0.229622   -0.296302
      4          1           0       -2.457290    0.500384   -1.256857
      5          7           0       -0.188124    2.460081    1.069786
      6          1           0        0.694291    2.294875    1.510299
      7          6           0       -3.007971   -1.094107   -0.118768
      8          6           0       -3.670017   -1.462230    1.222046
      9          1           0       -2.943692   -1.910699    1.867203
     10          1           0       -4.058583   -0.578031    1.682597
     11          1           0       -4.467769   -2.153736    1.047942
     12          6           0       -0.253450    3.855308    0.611557
     13          1           0       -0.144850    4.511459    1.449753
     14          1           0        0.534582    4.037960   -0.088830
     15          1           0       -1.197634    4.032078    0.140209
     16          8           0       -2.992691   -1.926482   -1.062425
     17          6           0       -0.980668    0.171875    0.104235
     18          1           0       -0.912808   -0.117840    1.132029
     19          6           0       -0.241187   -0.858412   -0.769421
     20          1           0       -0.688187   -1.821943   -0.640196
     21          1           0       -0.309047   -0.568696   -1.797215
     22          6           0        1.239309   -0.918909   -0.349811
     23          6           0        1.649591   -1.816919    0.644758
     24          6           0        2.176279   -0.075950   -0.962535
     25          6           0        2.996841   -1.871970    1.026605
     26          1           0        0.934194   -2.460537    1.112586
     27          6           0        3.523529   -0.131001   -0.580689
     28          1           0        1.863020    0.609699   -1.721913
     29          6           0        3.933811   -1.029012    0.413880
     30          1           0        3.310100   -2.557619    1.785982
     31          1           0        4.238926    0.512618   -1.048516
     32          1           0        4.962467   -1.071046    0.705426
 ---------------------------------------------------------------------
 Rotational constants (GHZ):      0.6288920      0.3813582      0.2771122
 Leave Link  202 at Wed Mar 27 18:07:05 2013, MaxMem= 4294967296 cpu:       0.7
 (Enter /system/software/linux-x86_64/gaussian/g09/A.02__pgi_8.0-6__acml/l301.exe)
 Standard basis: CC-pVTZ (5D, 7F)
 Ernie: Thresh=  0.10000D-02 Tol=  0.10000D-05 Strict=F.
 Ernie:  48 primitive shells out of 544 were deleted.
 There are   704 symmetry adapted basis functions of A   symmetry.
 Integral buffers will be    131072 words long.
 Raffenetti 2 integral format.
 Two-electron integral symmetry is turned on.
   704 basis functions,  1104 primitive gaussians,   800 cartesian basis functions
    59 alpha electrons       59 beta electrons
       nuclear repulsion energy      1089.4370218494 Hartrees.
 IExCor= 4235 DFT=T Ex+Corr=M06 ExCW=0 ScaHFX=  0.270000
 ScaDFX=  1.000000  1.000000  1.000000  1.000000 ScalE2=  1.000000  1.000000
 IRadAn=      5 IRanWt=     -1 IRanGd=            0 ICorTp=0
 NAtoms=   32 NActive=   32 NUniq=   32 SFac= 7.50D-01 NAtFMM=   80 NAOKFM=F Big=F
 Leave Link  301 at Wed Mar 27 18:07:05 2013, MaxMem= 4294967296 cpu:       2.6
 (Enter /system/software/linux-x86_64/gaussian/g09/A.02__pgi_8.0-6__acml/l302.exe)
 NPDir=0 NMtPBC=     1 NCelOv=     1 NCel=       1 NClECP=     1 NCelD=      1
         NCelK=      1 NCelE2=     1 NClLst=     1 CellRange=     0.0.
 One-electron integrals computed using PRISM.
 NBasis=   704 RedAO= T  NBF=   704
 NBsUse=   704 1.00D-06 NBFU=   704
 Precomputing XC quadrature grid using
 IXCGrd= 2 IRadAn=           5 IRanWt=          -1 IRanGd=           0 AccXCQ= 1.00D-10.
 NRdTot=    2693 NPtTot=      724442 NUsed=      743722 NTot=      743754
 NSgBfM=   794   794   794   794   794 NAtAll=    32    32.
 Leave Link  302 at Wed Mar 27 18:07:07 2013, MaxMem= 4294967296 cpu:      49.2
 (Enter /system/software/linux-x86_64/gaussian/g09/A.02__pgi_8.0-6__acml/l303.exe)
 DipDrv:  MaxL=1.
 Leave Link  303 at Wed Mar 27 18:07:08 2013, MaxMem= 4294967296 cpu:       6.4
 (Enter /system/software/linux-x86_64/gaussian/g09/A.02__pgi_8.0-6__acml/l401.exe)
 Harris functional with IExCor= 1009 diagonalized for initial guess.
 ExpMin= 1.03D-01 ExpMax= 1.53D+04 ExpMxC= 5.22D+02 IAcc=3 IRadAn=         5 AccDes= 0.00D+00
 HarFok:  IExCor= 1009 AccDes= 0.00D+00 IRadAn=         5 IDoV= 1
 ScaDFX=  1.000000  1.000000  1.000000  1.000000
 FoFCou: FMM=F IPFlag=           0 FMFlag=      100000 FMFlg1=           0
         NFxFlg=           0 DoJE=T BraDBF=F KetDBF=T FulRan=T
         Omega=  0.000000  0.000000  1.000000  0.000000  0.000000 ICntrl=     500 IOpCl=  0
         NMat0=    1 NMatS0=    1 NMatT0=    0 NMatD0=    1 NMtDS0=    0 NMtDT0=    0
         I1Cent=           4 NGrid=           0.
 Petite list used in FoFCou.
 Harris En= -726.581750902561    
 Initial guess orbital symmetries:
       Occupied  (A) (A) (A) (A) (A) (A) (A) (A) (A) (A) (A) (A)
                 (A) (A) (A) (A) (A) (A) (A) (A) (A) (A) (A) (A)
                 (A) (A) (A) (A) (A) (A) (A) (A) (A) (A) (A) (A)
                 (A) (A) (A) (A) (A) (A) (A) (A) (A) (A) (A) (A)
                 (A) (A) (A) (A) (A) (A) (A) (A) (A) (A) (A)
       Virtual   (A) (A) (A) (A) (A) (A) (A) (A) (A) (A) (A) (A)
                 (A) (A) (A) (A) (A) (A) (A) (A) (A) (A) (A) (A)
                 (A) (A) (A) (A) (A) (A) (A) (A) (A) (A) (A) (A)
                 (A) (A) (A) (A) (A) (A) (A) (A) (A) (A) (A) (A)
                 (A) (A) (A) (A) (A) (A) (A) (A) (A) (A) (A) (A)
                 (A) (A) (A) (A) (A) (A) (A) (A) (A) (A) (A) (A)
                 (A) (A) (A) (A) (A) (A) (A) (A) (A) (A) (A) (A)
                 (A) (A) (A) (A) (A) (A) (A) (A) (A) (A) (A) (A)
                 (A) (A) (A) (A) (A) (A) (A) (A) (A) (A) (A) (A)
                 (A) (A) (A) (A) (A) (A) (A) (A) (A) (A) (A) (A)
                 (A) (A) (A) (A) (A) (A) (A) (A) (A) (A) (A) (A)
                 (A) (A) (A) (A) (A) (A) (A) (A) (A) (A) (A) (A)
                 (A) (A) (A) (A) (A) (A) (A) (A) (A) (A) (A) (A)
                 (A) (A) (A) (A) (A) (A) (A) (A) (A) (A) (A) (A)
                 (A) (A) (A) (A) (A) (A) (A) (A) (A) (A) (A) (A)
                 (A) (A) (A) (A) (A) (A) (A) (A) (A) (A) (A) (A)
                 (A) (A) (A) (A) (A) (A) (A) (A) (A) (A) (A) (A)
                 (A) (A) (A) (A) (A) (A) (A) (A) (A) (A) (A) (A)
                 (A) (A) (A) (A) (A) (A) (A) (A) (A) (A) (A) (A)
                 (A) (A) (A) (A) (A) (A) (A) (A) (A) (A) (A) (A)
                 (A) (A) (A) (A) (A) (A) (A) (A) (A) (A) (A) (A)
                 (A) (A) (A) (A) (A) (A) (A) (A) (A) (A) (A) (A)
                 (A) (A) (A) (A) (A) (A) (A) (A) (A) (A) (A) (A)
                 (A) (A) (A) (A) (A) (A) (A) (A) (A) (A) (A) (A)
                 (A) (A) (A) (A) (A) (A) (A) (A) (A) (A) (A) (A)
                 (A) (A) (A) (A) (A) (A) (A) (A) (A) (A) (A) (A)
                 (A) (A) (A) (A) (A) (A) (A) (A) (A) (A) (A) (A)
                 (A) (A) (A) (A) (A) (A) (A) (A) (A) (A) (A) (A)
                 (A) (A) (A) (A) (A) (A) (A) (A) (A) (A) (A) (A)
                 (A) (A) (A) (A) (A) (A) (A) (A) (A) (A) (A) (A)
                 (A) (A) (A) (A) (A) (A) (A) (A) (A) (A) (A) (A)
                 (A) (A) (A) (A) (A) (A) (A) (A) (A) (A) (A) (A)
                 (A) (A) (A) (A) (A) (A) (A) (A) (A) (A) (A) (A)
                 (A) (A) (A) (A) (A) (A) (A) (A) (A) (A) (A) (A)
                 (A) (A) (A) (A) (A) (A) (A) (A) (A) (A) (A) (A)
                 (A) (A) (A) (A) (A) (A) (A) (A) (A) (A) (A) (A)
                 (A) (A) (A) (A) (A) (A) (A) (A) (A) (A) (A) (A)
                 (A) (A) (A) (A) (A) (A) (A) (A) (A) (A) (A) (A)
                 (A) (A) (A) (A) (A) (A) (A) (A) (A) (A) (A) (A)
                 (A) (A) (A) (A) (A) (A) (A) (A) (A) (A) (A) (A)
                 (A) (A) (A) (A) (A) (A) (A) (A) (A) (A) (A) (A)
                 (A) (A) (A) (A) (A) (A) (A) (A) (A) (A) (A) (A)
                 (A) (A) (A) (A) (A) (A) (A) (A) (A) (A) (A) (A)
                 (A) (A) (A) (A) (A) (A) (A) (A) (A) (A) (A) (A)
                 (A) (A) (A) (A) (A) (A) (A) (A) (A) (A) (A) (A)
                 (A) (A) (A) (A) (A) (A) (A) (A) (A) (A) (A) (A)
                 (A) (A) (A) (A) (A) (A) (A) (A) (A) (A) (A) (A)
                 (A) (A) (A) (A) (A) (A) (A) (A) (A) (A) (A) (A)
                 (A) (A) (A) (A) (A) (A) (A) (A) (A) (A) (A) (A)
                 (A) (A) (A) (A) (A) (A) (A) (A) (A) (A) (A) (A)
                 (A) (A) (A) (A) (A) (A) (A) (A) (A) (A) (A) (A)
                 (A) (A) (A) (A) (A) (A) (A) (A) (A) (A) (A) (A)
                 (A) (A) (A) (A) (A) (A) (A) (A) (A) (A) (A) (A)
                 (A) (A) (A) (A) (A) (A) (A) (A) (A)
 The electronic state of the initial guess is 1-A.
 Leave Link  401 at Wed Mar 27 18:07:14 2013, MaxMem= 4294967296 cpu:     124.5
 (Enter /system/software/linux-x86_64/gaussian/g09/A.02__pgi_8.0-6__acml/l502.exe)
 Closed shell SCF:
 Requested convergence on RMS density matrix=1.00D-08 within 128 cycles.
 Requested convergence on MAX density matrix=1.00D-06.
 Requested convergence on             energy=1.00D-06.
 No special actions if energy rises.
 Using DIIS extrapolation, IDIIS=  1040.
 Integral symmetry usage will be decided dynamically.
       743421 words used for storage of precomputed grid.
 IEnd=     2706591 IEndB=     2706591 NGot=  4294967296 MDV=  4292918146
 LenX=  4292918146 LenY=  4292277346
 Fock matrices will be formed incrementally for  20 cycles.
 Integral accuracy reduced to 1.0D-05 until final iterations.

 Cycle   1  Pass 0  IDiag  1:
 FoFCou: FMM=F IPFlag=           0 FMFlag=      100000 FMFlg1=           0
         NFxFlg=           0 DoJE=F BraDBF=F KetDBF=F FulRan=T
         Omega=  0.000000  0.000000  1.000000  0.000000  0.000000 ICntrl=       0 IOpCl=  0
         NMat0=    1 NMatS0=    1 NMatT0=    0 NMatD0=    1 NMtDS0=    0 NMtDT0=    0
         I1Cent=           0 NGrid=           0.
 Symmetry not used in FoFCou.
 E= -726.149754209361    
 DIIS: error= 1.66D-02 at cycle   1 NSaved=   1.
 NSaved= 1 IEnMin= 1 EnMin= -726.149754209361     IErMin= 1 ErrMin= 1.66D-02
 ErrMax= 1.66D-02 EMaxC= 1.00D-01 BMatC= 4.52D-01 BMatP= 4.52D-01
 IDIUse=3 WtCom= 8.34D-01 WtEn= 1.66D-01
 Coeff-Com:  0.100D+01
 Coeff-En:   0.100D+01
 Coeff:      0.100D+01
 Gap=     0.251 Goal=   None    Shift=    0.000
 GapD=    0.251 DampG=1.000 DampE=0.500 DampFc=0.5000 IDamp=-1.
 Damping current iteration by 5.00D-01
 RMSDP=2.12D-03 MaxDP=1.88D-01              OVMax= 1.97D-01

 Cycle   2  Pass 0  IDiag  1:
 RMSU=  7.51D-04    CP:  1.00D+00
 E= -726.300124215094     Delta-E=       -0.150370005733 Rises=F Damp=T
 DIIS: error= 6.19D-03 at cycle   2 NSaved=   2.
 NSaved= 2 IEnMin= 2 EnMin= -726.300124215094     IErMin= 2 ErrMin= 6.19D-03
 ErrMax= 6.19D-03 EMaxC= 1.00D-01 BMatC= 5.10D-02 BMatP= 4.52D-01
 IDIUse=3 WtCom= 9.38D-01 WtEn= 6.19D-02
 Coeff-Com:  0.172D+00 0.828D+00
 Coeff-En:   0.243D+00 0.757D+00
 Coeff:      0.176D+00 0.824D+00
 Gap=     0.199 Goal=   None    Shift=    0.000
 RMSDP=6.38D-04 MaxDP=3.58D-02 DE=-1.50D-01 OVMax= 1.64D-01

 Cycle   3  Pass 0  IDiag  1:
 RMSU=  4.42D-04    CP:  1.00D+00  8.78D-01
 E= -726.511227049274     Delta-E=       -0.211102834180 Rises=F Damp=F
 DIIS: error= 8.05D-03 at cycle   3 NSaved=   3.
 NSaved= 3 IEnMin= 3 EnMin= -726.511227049274     IErMin= 2 ErrMin= 6.19D-03
 ErrMax= 8.05D-03 EMaxC= 1.00D-01 BMatC= 6.87D-02 BMatP= 5.10D-02
 IDIUse=3 WtCom= 1.00D-01 WtEn= 9.00D-01
 Coeff-Com:  0.499D-01 0.534D+00 0.417D+00
 Coeff-En:   0.000D+00 0.000D+00 0.100D+01
 Coeff:      0.500D-02 0.535D-01 0.941D+00
 Gap=     0.221 Goal=   None    Shift=    0.000
 RMSDP=7.72D-04 MaxDP=4.76D-02 DE=-2.11D-01 OVMax= 1.62D-01

 Cycle   4  Pass 0  IDiag  1:
 RMSU=  4.70D-04    CP:  1.00D+00  1.10D+00  5.01D-01
 E= -726.324142493659     Delta-E=        0.187084555615 Rises=F Damp=F
 DIIS: error= 1.71D-02 at cycle   4 NSaved=   4.
 NSaved= 4 IEnMin= 3 EnMin= -726.511227049274     IErMin= 2 ErrMin= 6.19D-03
 ErrMax= 1.71D-02 EMaxC= 1.00D-01 BMatC= 3.18D-01 BMatP= 5.10D-02
 IDIUse=2 WtCom= 0.00D+00 WtEn= 1.00D+00
 Coeff-En:   0.000D+00 0.000D+00 0.760D+00 0.240D+00
 Coeff:      0.000D+00 0.000D+00 0.760D+00 0.240D+00
 Gap=     0.219 Goal=   None    Shift=    0.000
 RMSDP=4.11D-04 MaxDP=2.55D-02 DE= 1.87D-01 OVMax= 9.05D-02

 Cycle   5  Pass 0  IDiag  1:
 RMSU=  4.87D-05    CP:  1.00D+00  9.16D-01  7.88D-01  5.40D-01
 E= -726.551681928282     Delta-E=       -0.227539434623 Rises=F Damp=F
 DIIS: error= 4.06D-03 at cycle   5 NSaved=   5.
 NSaved= 5 IEnMin= 5 EnMin= -726.551681928282     IErMin= 5 ErrMin= 4.06D-03
 ErrMax= 4.06D-03 EMaxC= 1.00D-01 BMatC= 1.81D-02 BMatP= 5.10D-02
 IDIUse=3 WtCom= 9.59D-01 WtEn= 4.06D-02
 Coeff-Com: -0.706D-02 0.303D-01 0.277D+00-0.660D-01 0.766D+00
 Coeff-En:   0.000D+00 0.000D+00 0.256D+00 0.000D+00 0.744D+00
 Coeff:     -0.678D-02 0.291D-01 0.276D+00-0.633D-01 0.765D+00
 Gap=     0.209 Goal=   None    Shift=    0.000
 RMSDP=1.24D-04 MaxDP=7.62D-03 DE=-2.28D-01 OVMax= 2.64D-02

 Cycle   6  Pass 0  IDiag  1:
 RMSU=  1.76D-05    CP:  1.00D+00  9.07D-01  8.74D-01  3.77D-01  9.60D-01
 E= -726.565805513593     Delta-E=       -0.014123585310 Rises=F Damp=F
 DIIS: error= 2.47D-04 at cycle   6 NSaved=   6.
 NSaved= 6 IEnMin= 6 EnMin= -726.565805513593     IErMin= 6 ErrMin= 2.47D-04
 ErrMax= 2.47D-04 EMaxC= 1.00D-01 BMatC= 7.03D-05 BMatP= 1.81D-02
 IDIUse=3 WtCom= 9.98D-01 WtEn= 2.47D-03
 Coeff-Com: -0.674D-02 0.156D-01 0.994D-01-0.547D-01 0.400D+00 0.547D+00
 Coeff-En:   0.000D+00 0.000D+00 0.000D+00 0.000D+00 0.000D+00 0.100D+01
 Coeff:     -0.672D-02 0.155D-01 0.992D-01-0.546D-01 0.399D+00 0.548D+00
 Gap=     0.208 Goal=   None    Shift=    0.000
 RMSDP=1.30D-05 MaxDP=9.48D-04 DE=-1.41D-02 OVMax= 1.91D-03

 Cycle   7  Pass 0  IDiag  1:
 RMSU=  6.97D-06    CP:  1.00D+00  9.12D-01  8.77D-01  3.82D-01  1.01D+00
                    CP:  8.03D-01
 E= -726.565860614621     Delta-E=       -0.000055101029 Rises=F Damp=F
 DIIS: error= 5.90D-05 at cycle   7 NSaved=   7.
 NSaved= 7 IEnMin= 7 EnMin= -726.565860614621     IErMin= 7 ErrMin= 5.90D-05
 ErrMax= 5.90D-05 EMaxC= 1.00D-01 BMatC= 7.48D-06 BMatP= 7.03D-05
 IDIUse=1 WtCom= 1.00D+00 WtEn= 0.00D+00
 Coeff-Com: -0.178D-02 0.273D-02 0.196D-01-0.160D-01 0.994D-01 0.271D+00
 Coeff-Com:  0.625D+00
 Coeff:     -0.178D-02 0.273D-02 0.196D-01-0.160D-01 0.994D-01 0.271D+00
 Coeff:      0.625D+00
 Gap=     0.208 Goal=   None    Shift=    0.000
 RMSDP=4.54D-06 MaxDP=2.86D-04 DE=-5.51D-05 OVMax= 8.50D-04

 Initial convergence to 1.0D-05 achieved.  Increase integral accuracy.
 Cycle   8  Pass 1  IDiag  1:
 E= -726.565978585946     Delta-E=       -0.000117971325 Rises=F Damp=F
 DIIS: error= 1.28D-04 at cycle   1 NSaved=   1.
 NSaved= 1 IEnMin= 1 EnMin= -726.565978585946     IErMin= 1 ErrMin= 1.28D-04
 ErrMax= 1.28D-04 EMaxC= 1.00D-01 BMatC= 5.64D-06 BMatP= 5.64D-06
 IDIUse=3 WtCom= 9.99D-01 WtEn= 1.28D-03
 Coeff-Com:  0.100D+01
 Coeff-En:   0.100D+01
 Coeff:      0.100D+01
 Gap=     0.208 Goal=   None    Shift=    0.000
 RMSDP=4.54D-06 MaxDP=2.86D-04 DE=-1.18D-04 OVMax= 8.75D-04

 Cycle   9  Pass 1  IDiag  1:
 RMSU=  5.87D-05    CP:  1.00D+00
 E= -726.565975678518     Delta-E=        0.000002907428 Rises=F Damp=F
 DIIS: error= 6.89D-05 at cycle   2 NSaved=   2.
 NSaved= 2 IEnMin= 1 EnMin= -726.565978585946     IErMin= 2 ErrMin= 6.89D-05
 ErrMax= 6.89D-05 EMaxC= 1.00D-01 BMatC= 9.30D-06 BMatP= 5.64D-06
 IDIUse=1 WtCom= 1.00D+00 WtEn= 0.00D+00
 Coeff-Com:  0.576D+00 0.424D+00
 Coeff:      0.576D+00 0.424D+00
 Gap=     0.208 Goal=   None    Shift=    0.000
 RMSDP=3.72D-06 MaxDP=2.39D-04 DE= 2.91D-06 OVMax= 7.70D-04

 Cycle  10  Pass 1  IDiag  1:
 RMSU=  2.60D-06    CP:  1.00D+00  1.01D+00
 E= -726.565982205635     Delta-E=       -0.000006527117 Rises=F Damp=F
 DIIS: error= 2.70D-05 at cycle   3 NSaved=   3.
 NSaved= 3 IEnMin= 3 EnMin= -726.565982205635     IErMin= 3 ErrMin= 2.70D-05
 ErrMax= 2.70D-05 EMaxC= 1.00D-01 BMatC= 9.69D-07 BMatP= 5.64D-06
 IDIUse=1 WtCom= 1.00D+00 WtEn= 0.00D+00
 Coeff-Com:  0.407D-01 0.243D+00 0.717D+00
 Coeff:      0.407D-01 0.243D+00 0.717D+00
 Gap=     0.208 Goal=   None    Shift=    0.000
 RMSDP=1.44D-06 MaxDP=7.68D-05 DE=-6.53D-06 OVMax= 2.31D-04

 Cycle  11  Pass 1  IDiag  1:
 RMSU=  6.08D-07    CP:  1.00D+00  1.02D+00  7.95D-01
 E= -726.565982814937     Delta-E=       -0.000000609302 Rises=F Damp=F
 DIIS: error= 8.36D-06 at cycle   4 NSaved=   4.
 NSaved= 4 IEnMin= 4 EnMin= -726.565982814937     IErMin= 4 ErrMin= 8.36D-06
 ErrMax= 8.36D-06 EMaxC= 1.00D-01 BMatC= 1.48D-07 BMatP= 9.69D-07
 IDIUse=1 WtCom= 1.00D+00 WtEn= 0.00D+00
 Coeff-Com: -0.766D-02 0.127D+00 0.450D+00 0.431D+00
 Coeff:     -0.766D-02 0.127D+00 0.450D+00 0.431D+00
 Gap=     0.208 Goal=   None    Shift=    0.000
 RMSDP=3.95D-07 MaxDP=1.96D-05 DE=-6.09D-07 OVMax= 6.91D-05

 Cycle  12  Pass 1  IDiag  1:
 RMSU=  2.33D-07    CP:  1.00D+00  1.02D+00  8.13D-01  7.83D-01
 E= -726.565982937090     Delta-E=       -0.000000122153 Rises=F Damp=F
 DIIS: error= 1.59D-06 at cycle   5 NSaved=   5.
 NSaved= 5 IEnMin= 5 EnMin= -726.565982937090     IErMin= 5 ErrMin= 1.59D-06
 ErrMax= 1.59D-06 EMaxC= 1.00D-01 BMatC= 2.52D-09 BMatP= 1.48D-07
 IDIUse=1 WtCom= 1.00D+00 WtEn= 0.00D+00
 Coeff-Com: -0.508D-02 0.516D-01 0.190D+00 0.205D+00 0.558D+00
 Coeff:     -0.508D-02 0.516D-01 0.190D+00 0.205D+00 0.558D+00
 Gap=     0.208 Goal=   None    Shift=    0.000
 RMSDP=8.91D-08 MaxDP=3.14D-06 DE=-1.22D-07 OVMax= 2.73D-05

 Cycle  13  Pass 1  IDiag  1:
 RMSU=  5.78D-08    CP:  1.00D+00  1.02D+00  8.19D-01  8.11D-01  9.55D-01
 E= -726.565982939165     Delta-E=       -0.000000002075 Rises=F Damp=F
 DIIS: error= 7.09D-07 at cycle   6 NSaved=   6.
 NSaved= 6 IEnMin= 6 EnMin= -726.565982939165     IErMin= 6 ErrMin= 7.09D-07
 ErrMax= 7.09D-07 EMaxC= 1.00D-01 BMatC= 6.29D-10 BMatP= 2.52D-09
 IDIUse=1 WtCom= 1.00D+00 WtEn= 0.00D+00
 Coeff-Com: -0.116D-02 0.592D-03 0.675D-02 0.194D-01 0.335D+00 0.639D+00
 Coeff:     -0.116D-02 0.592D-03 0.675D-02 0.194D-01 0.335D+00 0.639D+00
 Gap=     0.208 Goal=   None    Shift=    0.000
 RMSDP=4.85D-08 MaxDP=4.36D-06 DE=-2.08D-09 OVMax= 8.82D-06

 Cycle  14  Pass 1  IDiag  1:
 RMSU=  2.21D-08    CP:  1.00D+00  1.02D+00  8.20D-01  8.34D-01  1.04D+00
                    CP:  8.53D-01
 E= -726.565982939711     Delta-E=       -0.000000000545 Rises=F Damp=F
 DIIS: error= 2.00D-07 at cycle   7 NSaved=   7.
 NSaved= 7 IEnMin= 7 EnMin= -726.565982939711     IErMin= 7 ErrMin= 2.00D-07
 ErrMax= 2.00D-07 EMaxC= 1.00D-01 BMatC= 8.94D-11 BMatP= 6.29D-10
 IDIUse=1 WtCom= 1.00D+00 WtEn= 0.00D+00
 Coeff-Com: -0.816D-04-0.559D-02-0.182D-01-0.126D-01 0.130D+00 0.364D+00
 Coeff-Com:  0.542D+00
 Coeff:     -0.816D-04-0.559D-02-0.182D-01-0.126D-01 0.130D+00 0.364D+00
 Coeff:      0.542D+00
 Gap=     0.208 Goal=   None    Shift=    0.000
 RMSDP=1.57D-08 MaxDP=1.20D-06 DE=-5.45D-10 OVMax= 1.96D-06

 Cycle  15  Pass 1  IDiag  1:
 RMSU=  9.07D-09    CP:  1.00D+00  1.02D+00  8.20D-01  8.42D-01  1.05D+00
                    CP:  8.77D-01  8.74D-01
 E= -726.565982939771     Delta-E=       -0.000000000061 Rises=F Damp=F
 DIIS: error= 8.61D-08 at cycle   8 NSaved=   8.
 NSaved= 8 IEnMin= 8 EnMin= -726.565982939771     IErMin= 8 ErrMin= 8.61D-08
 ErrMax= 8.61D-08 EMaxC= 1.00D-01 BMatC= 9.12D-12 BMatP= 8.94D-11
 IDIUse=1 WtCom= 1.00D+00 WtEn= 0.00D+00
 Coeff-Com:  0.123D-03-0.305D-02-0.107D-01-0.952D-02 0.223D-01 0.105D+00
 Coeff-Com:  0.281D+00 0.615D+00
 Coeff:      0.123D-03-0.305D-02-0.107D-01-0.952D-02 0.223D-01 0.105D+00
 Coeff:      0.281D+00 0.615D+00
 Gap=     0.208 Goal=   None    Shift=    0.000
 RMSDP=5.70D-09 MaxDP=5.29D-07 DE=-6.07D-11 OVMax= 8.18D-07

 SCF Done:  E(RM06) =  -726.565982940     A.U. after   15 cycles
             Convg  =    0.5698D-08             -V/T =  2.0080
 KE= 7.208076781209D+02 PE=-3.870559559701D+03 EE= 1.333748876791D+03
 Leave Link  502 at Wed Mar 27 18:26:50 2013, MaxMem= 4294967296 cpu:   28209.8
 (Enter /system/software/linux-x86_64/gaussian/g09/A.02__pgi_8.0-6__acml/l601.exe)
 Copying SCF densities to generalized density rwf, IOpCl= 0 IROHF=0.

 **********************************************************************

            Population analysis using the SCF density.

 **********************************************************************

 Orbital symmetries:
       Occupied  (A) (A) (A) (A) (A) (A) (A) (A) (A) (A) (A) (A)
                 (A) (A) (A) (A) (A) (A) (A) (A) (A) (A) (A) (A)
                 (A) (A) (A) (A) (A) (A) (A) (A) (A) (A) (A) (A)
                 (A) (A) (A) (A) (A) (A) (A) (A) (A) (A) (A) (A)
                 (A) (A) (A) (A) (A) (A) (A) (A) (A) (A) (A)
       Virtual   (A) (A) (A) (A) (A) (A) (A) (A) (A) (A) (A) (A)
                 (A) (A) (A) (A) (A) (A) (A) (A) (A) (A) (A) (A)
                 (A) (A) (A) (A) (A) (A) (A) (A) (A) (A) (A) (A)
                 (A) (A) (A) (A) (A) (A) (A) (A) (A) (A) (A) (A)
                 (A) (A) (A) (A) (A) (A) (A) (A) (A) (A) (A) (A)
                 (A) (A) (A) (A) (A) (A) (A) (A) (A) (A) (A) (A)
                 (A) (A) (A) (A) (A) (A) (A) (A) (A) (A) (A) (A)
                 (A) (A) (A) (A) (A) (A) (A) (A) (A) (A) (A) (A)
                 (A) (A) (A) (A) (A) (A) (A) (A) (A) (A) (A) (A)
                 (A) (A) (A) (A) (A) (A) (A) (A) (A) (A) (A) (A)
                 (A) (A) (A) (A) (A) (A) (A) (A) (A) (A) (A) (A)
                 (A) (A) (A) (A) (A) (A) (A) (A) (A) (A) (A) (A)
                 (A) (A) (A) (A) (A) (A) (A) (A) (A) (A) (A) (A)
                 (A) (A) (A) (A) (A) (A) (A) (A) (A) (A) (A) (A)
                 (A) (A) (A) (A) (A) (A) (A) (A) (A) (A) (A) (A)
                 (A) (A) (A) (A) (A) (A) (A) (A) (A) (A) (A) (A)
                 (A) (A) (A) (A) (A) (A) (A) (A) (A) (A) (A) (A)
                 (A) (A) (A) (A) (A) (A) (A) (A) (A) (A) (A) (A)
                 (A) (A) (A) (A) (A) (A) (A) (A) (A) (A) (A) (A)
                 (A) (A) (A) (A) (A) (A) (A) (A) (A) (A) (A) (A)
                 (A) (A) (A) (A) (A) (A) (A) (A) (A) (A) (A) (A)
                 (A) (A) (A) (A) (A) (A) (A) (A) (A) (A) (A) (A)
                 (A) (A) (A) (A) (A) (A) (A) (A) (A) (A) (A) (A)
                 (A) (A) (A) (A) (A) (A) (A) (A) (A) (A) (A) (A)
                 (A) (A) (A) (A) (A) (A) (A) (A) (A) (A) (A) (A)
                 (A) (A) (A) (A) (A) (A) (A) (A) (A) (A) (A) (A)
                 (A) (A) (A) (A) (A) (A) (A) (A) (A) (A) (A) (A)
                 (A) (A) (A) (A) (A) (A) (A) (A) (A) (A) (A) (A)
                 (A) (A) (A) (A) (A) (A) (A) (A) (A) (A) (A) (A)
                 (A) (A) (A) (A) (A) (A) (A) (A) (A) (A) (A) (A)
                 (A) (A) (A) (A) (A) (A) (A) (A) (A) (A) (A) (A)
                 (A) (A) (A) (A) (A) (A) (A) (A) (A) (A) (A) (A)
                 (A) (A) (A) (A) (A) (A) (A) (A) (A) (A) (A) (A)
                 (A) (A) (A) (A) (A) (A) (A) (A) (A) (A) (A) (A)
                 (A) (A) (A) (A) (A) (A) (A) (A) (A) (A) (A) (A)
                 (A) (A) (A) (A) (A) (A) (A) (A) (A) (A) (A) (A)
                 (A) (A) (A) (A) (A) (A) (A) (A) (A) (A) (A) (A)
                 (A) (A) (A) (A) (A) (A) (A) (A) (A) (A) (A) (A)
                 (A) (A) (A) (A) (A) (A) (A) (A) (A) (A) (A) (A)
                 (A) (A) (A) (A) (A) (A) (A) (A) (A) (A) (A) (A)
                 (A) (A) (A) (A) (A) (A) (A) (A) (A) (A) (A) (A)
                 (A) (A) (A) (A) (A) (A) (A) (A) (A) (A) (A) (A)
                 (A) (A) (A) (A) (A) (A) (A) (A) (A) (A) (A) (A)
                 (A) (A) (A) (A) (A) (A) (A) (A) (A) (A) (A) (A)
                 (A) (A) (A) (A) (A) (A) (A) (A) (A) (A) (A) (A)
                 (A) (A) (A) (A) (A) (A) (A) (A) (A) (A) (A) (A)
                 (A) (A) (A) (A) (A) (A) (A) (A) (A) (A) (A) (A)
                 (A) (A) (A) (A) (A) (A) (A) (A) (A) (A) (A) (A)
                 (A) (A) (A) (A) (A) (A) (A) (A) (A) (A) (A) (A)
                 (A) (A) (A) (A) (A) (A) (A) (A) (A) (A) (A) (A)
                 (A) (A) (A) (A) (A) (A) (A) (A) (A) (A) (A) (A)
                 (A) (A) (A) (A) (A) (A) (A) (A) (A) (A) (A) (A)
                 (A) (A) (A) (A) (A) (A) (A) (A) (A) (A) (A) (A)
                 (A) (A) (A) (A) (A) (A) (A) (A) (A)
 The electronic state is 1-A.
 Alpha  occ. eigenvalues --  -19.22274 -19.21630 -14.41369 -14.40970 -10.37716
 Alpha  occ. eigenvalues --  -10.37640 -10.30653 -10.25775 -10.25615 -10.25407
 Alpha  occ. eigenvalues --  -10.24622 -10.24510 -10.24455 -10.24367 -10.24202
 Alpha  occ. eigenvalues --  -10.23937  -1.06808  -1.05994  -0.94087  -0.92493
 Alpha  occ. eigenvalues --   -0.86802  -0.80107  -0.76754  -0.75702  -0.74291
 Alpha  occ. eigenvalues --   -0.70508  -0.66672  -0.62012  -0.60316  -0.59569
 Alpha  occ. eigenvalues --   -0.57708  -0.54169  -0.52628  -0.50178  -0.48768
 Alpha  occ. eigenvalues --   -0.48099  -0.47382  -0.47341  -0.46655  -0.46160
 Alpha  occ. eigenvalues --   -0.44731  -0.43917  -0.43271  -0.42647  -0.41998
 Alpha  occ. eigenvalues --   -0.41239  -0.40298  -0.39489  -0.38389  -0.37442
 Alpha  occ. eigenvalues --   -0.36946  -0.35336  -0.35028  -0.30621  -0.30107
 Alpha  occ. eigenvalues --   -0.27572  -0.27303  -0.26515  -0.25301
 Alpha virt. eigenvalues --   -0.04524  -0.03104  -0.00945  -0.00545   0.01949
 Alpha virt. eigenvalues --    0.03472   0.04714   0.05471   0.06631   0.07216
 Alpha virt. eigenvalues --    0.07440   0.08933   0.09217   0.09455   0.10306
 Alpha virt. eigenvalues --    0.10889   0.11690   0.12104   0.13268   0.14168
 Alpha virt. eigenvalues --    0.14676   0.14993   0.16062   0.18821   0.18873
 Alpha virt. eigenvalues --    0.19341   0.21276   0.22251   0.23306   0.23970
 Alpha virt. eigenvalues --    0.24248   0.24380   0.25475   0.25730   0.26134
 Alpha virt. eigenvalues --    0.26974   0.27878   0.28617   0.28850   0.29241
 Alpha virt. eigenvalues --    0.29514   0.30241   0.30736   0.32002   0.33221
 Alpha virt. eigenvalues --    0.33854   0.34534   0.34649   0.35423   0.35927
 Alpha virt. eigenvalues --    0.36440   0.37000   0.37317   0.38502   0.38924
 Alpha virt. eigenvalues --    0.39641   0.39698   0.40169   0.40190   0.41157
 Alpha virt. eigenvalues --    0.41336   0.41609   0.41789   0.42000   0.42414
 Alpha virt. eigenvalues --    0.42742   0.42956   0.43714   0.43930   0.44521
 Alpha virt. eigenvalues --    0.45331   0.45439   0.46047   0.46248   0.47301
 Alpha virt. eigenvalues --    0.47471   0.48353   0.49028   0.49674   0.50040
 Alpha virt. eigenvalues --    0.50913   0.52000   0.52755   0.52939   0.53419
 Alpha virt. eigenvalues --    0.54226   0.54689   0.54981   0.55813   0.56497
 Alpha virt. eigenvalues --    0.57710   0.58455   0.59784   0.61096   0.61507
 Alpha virt. eigenvalues --    0.63289   0.63877   0.64380   0.65274   0.66103
 Alpha virt. eigenvalues --    0.67004   0.68868   0.69503   0.70548   0.71750
 Alpha virt. eigenvalues --    0.72238   0.72522   0.72633   0.73545   0.74531
 Alpha virt. eigenvalues --    0.75712   0.75794   0.77774   0.78474   0.80036
 Alpha virt. eigenvalues --    0.80670   0.81515   0.82396   0.83354   0.83520
 Alpha virt. eigenvalues --    0.85010   0.85426   0.85948   0.86878   0.87593
 Alpha virt. eigenvalues --    0.88737   0.89625   0.90462   0.91458   0.91930
 Alpha virt. eigenvalues --    0.92336   0.93408   0.93903   0.94656   0.95283
 Alpha virt. eigenvalues --    0.95622   0.97454   0.97652   0.98267   0.99187
 Alpha virt. eigenvalues --    0.99733   1.00881   1.01678   1.02199   1.03184
 Alpha virt. eigenvalues --    1.03633   1.04319   1.04694   1.05998   1.06856
 Alpha virt. eigenvalues --    1.07268   1.08348   1.09267   1.10044   1.10406
 Alpha virt. eigenvalues --    1.10935   1.11607   1.13137   1.14471   1.15484
 Alpha virt. eigenvalues --    1.15890   1.16305   1.17733   1.18083   1.19200
 Alpha virt. eigenvalues --    1.19269   1.19864   1.20151   1.21489   1.21729
 Alpha virt. eigenvalues --    1.23319   1.23595   1.23968   1.24576   1.24869
 Alpha virt. eigenvalues --    1.25505   1.25864   1.26460   1.27419   1.28911
 Alpha virt. eigenvalues --    1.29147   1.29995   1.30031   1.31120   1.31894
 Alpha virt. eigenvalues --    1.32910   1.34266   1.34775   1.34895   1.35803
 Alpha virt. eigenvalues --    1.36851   1.37576   1.37877   1.39192   1.39420
 Alpha virt. eigenvalues --    1.40103   1.40864   1.41582   1.42161   1.42430
 Alpha virt. eigenvalues --    1.44352   1.46510   1.47601   1.47904   1.49072
 Alpha virt. eigenvalues --    1.50093   1.51553   1.51794   1.53261   1.54235
 Alpha virt. eigenvalues --    1.54936   1.56790   1.58476   1.59423   1.61172
 Alpha virt. eigenvalues --    1.62717   1.64179   1.65982   1.67861   1.69557
 Alpha virt. eigenvalues --    1.70112   1.72348   1.73476   1.75533   1.76861
 Alpha virt. eigenvalues --    1.79450   1.81615   1.82530   1.83000   1.84219
 Alpha virt. eigenvalues --    1.86259   1.88190   1.89611   1.90178   1.92273
 Alpha virt. eigenvalues --    1.95524   1.99528   1.99872   2.02502   2.04005
 Alpha virt. eigenvalues --    2.06272   2.07109   2.10291   2.11785   2.12579
 Alpha virt. eigenvalues --    2.13567   2.14856   2.15531   2.17425   2.19066
 Alpha virt. eigenvalues --    2.20562   2.21045   2.21583   2.23552   2.25354
 Alpha virt. eigenvalues --    2.25652   2.28279   2.29006   2.31890   2.32868
 Alpha virt. eigenvalues --    2.33975   2.36308   2.36759   2.37027   2.38765
 Alpha virt. eigenvalues --    2.40421   2.41441   2.41853   2.43422   2.44336
 Alpha virt. eigenvalues --    2.45012   2.45548   2.46645   2.48353   2.48760
 Alpha virt. eigenvalues --    2.49187   2.51061   2.51559   2.52866   2.54568
 Alpha virt. eigenvalues --    2.55453   2.56384   2.57333   2.60036   2.61363
 Alpha virt. eigenvalues --    2.61769   2.62890   2.63609   2.64384   2.64667
 Alpha virt. eigenvalues --    2.65910   2.66840   2.67804   2.68075   2.69251
 Alpha virt. eigenvalues --    2.69547   2.70191   2.70616   2.71378   2.71491
 Alpha virt. eigenvalues --    2.72153   2.72738   2.74514   2.74919   2.75695
 Alpha virt. eigenvalues --    2.76681   2.77079   2.78308   2.78861   2.80977
 Alpha virt. eigenvalues --    2.81467   2.81766   2.82699   2.84093   2.84866
 Alpha virt. eigenvalues --    2.85835   2.86763   2.87229   2.88040   2.89013
 Alpha virt. eigenvalues --    2.89053   2.90098   2.90870   2.91855   2.92579
 Alpha virt. eigenvalues --    2.93486   2.93825   2.94739   2.95049   2.96090
 Alpha virt. eigenvalues --    2.96669   2.96837   2.97160   2.98442   2.98734
 Alpha virt. eigenvalues --    3.00431   3.00968   3.01827   3.02261   3.02528
 Alpha virt. eigenvalues --    3.03174   3.03633   3.03953   3.04633   3.05373
 Alpha virt. eigenvalues --    3.05762   3.07192   3.07641   3.08113   3.09017
 Alpha virt. eigenvalues --    3.09675   3.10468   3.11609   3.12199   3.13048
 Alpha virt. eigenvalues --    3.13573   3.14437   3.15859   3.16371   3.17356
 Alpha virt. eigenvalues --    3.18237   3.19664   3.20678   3.21853   3.22419
 Alpha virt. eigenvalues --    3.23741   3.24769   3.25599   3.26265   3.27101
 Alpha virt. eigenvalues --    3.28832   3.29027   3.29148   3.30295   3.30892
 Alpha virt. eigenvalues --    3.31461   3.32057   3.32262   3.32983   3.33525
 Alpha virt. eigenvalues --    3.35068   3.35221   3.35779   3.36152   3.37471
 Alpha virt. eigenvalues --    3.37906   3.39460   3.39803   3.40264   3.40787
 Alpha virt. eigenvalues --    3.41757   3.42328   3.43947   3.44086   3.45107
 Alpha virt. eigenvalues --    3.45548   3.46092   3.46667   3.47838   3.48420
 Alpha virt. eigenvalues --    3.49874   3.50409   3.51467   3.53315   3.54957
 Alpha virt. eigenvalues --    3.55741   3.57351   3.58134   3.59352   3.60621
 Alpha virt. eigenvalues --    3.60891   3.62247   3.63945   3.65579   3.66544
 Alpha virt. eigenvalues --    3.66797   3.67420   3.68993   3.69907   3.71046
 Alpha virt. eigenvalues --    3.71112   3.73243   3.73497   3.74094   3.74223
 Alpha virt. eigenvalues --    3.76089   3.76225   3.76708   3.77431   3.77935
 Alpha virt. eigenvalues --    3.79285   3.79813   3.80156   3.80909   3.81085
 Alpha virt. eigenvalues --    3.82170   3.82925   3.83279   3.84562   3.84637
 Alpha virt. eigenvalues --    3.85575   3.86083   3.86712   3.87031   3.88800
 Alpha virt. eigenvalues --    3.89863   3.90187   3.91122   3.91550   3.93769
 Alpha virt. eigenvalues --    3.95145   3.95996   3.96364   3.98326   3.99346
 Alpha virt. eigenvalues --    4.00008   4.01259   4.02146   4.03773   4.04891
 Alpha virt. eigenvalues --    4.05541   4.06200   4.07124   4.07707   4.08767
 Alpha virt. eigenvalues --    4.09925   4.10657   4.10761   4.11999   4.13207
 Alpha virt. eigenvalues --    4.13605   4.14402   4.15936   4.16103   4.16877
 Alpha virt. eigenvalues --    4.17084   4.18273   4.19275   4.20293   4.21569
 Alpha virt. eigenvalues --    4.22462   4.22776   4.23709   4.24254   4.24934
 Alpha virt. eigenvalues --    4.25545   4.26413   4.26661   4.27067   4.27219
 Alpha virt. eigenvalues --    4.28165   4.29701   4.30014   4.31016   4.31432
 Alpha virt. eigenvalues --    4.32772   4.33775   4.34268   4.35763   4.37368
 Alpha virt. eigenvalues --    4.38735   4.39871   4.42533   4.44243   4.44781
 Alpha virt. eigenvalues --    4.45874   4.48559   4.49715   4.51327   4.54018
 Alpha virt. eigenvalues --    4.55568   4.57366   4.58435   4.59954   4.61715
 Alpha virt. eigenvalues --    4.62335   4.63028   4.65698   4.68737   4.69166
 Alpha virt. eigenvalues --    4.71131   4.71467   4.71959   4.72719   4.73702
 Alpha virt. eigenvalues --    4.74282   4.77528   4.78537   4.80563   4.82160
 Alpha virt. eigenvalues --    4.82776   4.83800   4.85175   4.87235   4.89213
 Alpha virt. eigenvalues --    4.89737   4.90011   4.90819   4.91712   4.93155
 Alpha virt. eigenvalues --    4.93793   4.94564   4.95870   4.97284   4.98313
 Alpha virt. eigenvalues --    4.99109   4.99478   5.02147   5.03570   5.04594
 Alpha virt. eigenvalues --    5.05650   5.06728   5.07835   5.09561   5.10175
 Alpha virt. eigenvalues --    5.11030   5.11669   5.13571   5.14448   5.15402
 Alpha virt. eigenvalues --    5.15916   5.17668   5.18311   5.19376   5.20176
 Alpha virt. eigenvalues --    5.21255   5.21808   5.22142   5.23000   5.24341
 Alpha virt. eigenvalues --    5.25245   5.27521   5.28911   5.30020   5.31728
 Alpha virt. eigenvalues --    5.32412   5.35154   5.36335   5.38384   5.42956
 Alpha virt. eigenvalues --    5.45767   5.46394   5.49857   5.51224   5.52951
 Alpha virt. eigenvalues --    5.55121   5.58493   5.58907   5.63616   5.65777
 Alpha virt. eigenvalues --    5.68168   5.69429   5.71184   5.73794   5.75362
 Alpha virt. eigenvalues --    5.77554   5.78218   5.79277   5.79937   5.84866
 Alpha virt. eigenvalues --    5.86945   5.88602   5.89631   5.91157   5.94216
 Alpha virt. eigenvalues --    5.94445   5.96732   6.00127   6.04438   6.07654
 Alpha virt. eigenvalues --    6.08292   6.14532   6.21721   6.27396   6.45618
 Alpha virt. eigenvalues --    6.47797   6.49331   6.52394   6.53118   6.55907
 Alpha virt. eigenvalues --    6.58348   6.60250   6.72248   6.87926   6.89524
 Alpha virt. eigenvalues --    7.04056   7.06386   7.07926   7.10841   8.80086
 Alpha virt. eigenvalues --    8.99861   9.17213  11.44018  11.74096  12.12833
 Alpha virt. eigenvalues --   12.17786  12.36757  12.54239  12.61844  12.73951
 Alpha virt. eigenvalues --   13.20895  13.45150  13.57190  13.68528  15.24392
          Condensed to atoms (all electrons):
              1          2          3          4          5          6
     1  C    4.745907   0.636134  -0.029341   0.002597   0.364333  -0.007675
     2  O    0.636134   7.867520  -0.002672   0.006592  -0.100428  -0.001918
     3  N   -0.029341  -0.002672   6.572904   0.377721  -0.001417   0.000131
     4  H    0.002597   0.006592   0.377721   0.552815   0.001156   0.000032
     5  N    0.364333  -0.100428  -0.001417   0.001156   6.471422   0.367095
     6  H   -0.007675  -0.001918   0.000131   0.000032   0.367095   0.566480
     7  C   -0.005232  -0.000563   0.298386  -0.014315  -0.000078  -0.000006
     8  C   -0.000307  -0.000020  -0.094508   0.007106  -0.000077   0.000006
     9  H    0.000450  -0.000002  -0.000064  -0.000184  -0.000033   0.000001
    10  H   -0.000241   0.000002   0.015575  -0.000857   0.000079  -0.000005
    11  H    0.000034   0.000000   0.005076  -0.000379  -0.000002   0.000000
    12  C   -0.061263  -0.012980  -0.001409  -0.000078   0.277769  -0.027364
    13  H    0.006685   0.001019   0.000003   0.000000  -0.024357  -0.004215
    14  H   -0.013620   0.017808  -0.000119  -0.000111  -0.054773  -0.008871
    15  H    0.000468  -0.001304   0.001265   0.000086  -0.032219   0.007001
    16  O   -0.001216   0.000013  -0.111022   0.003919   0.000000   0.000000
    17  C    0.213532  -0.085785   0.296444  -0.046718  -0.083357   0.004179
    18  H   -0.016816   0.004730  -0.019530   0.005770   0.015299  -0.000896
    19  C   -0.100875   0.013667  -0.094191  -0.006577   0.005577  -0.001613
    20  H    0.007445   0.000369  -0.005878  -0.000215  -0.000088   0.000012
    21  H    0.001834   0.008631   0.003026   0.006342   0.000786  -0.000026
    22  C    0.008087  -0.017693   0.006203   0.001845  -0.004163   0.001705
    23  C   -0.000583  -0.000868   0.000322  -0.000158  -0.000795   0.000292
    24  C    0.002657  -0.007870  -0.000213   0.000238  -0.000494   0.001213
    25  C    0.000243   0.000012   0.000013   0.000004   0.000020  -0.000026
    26  H    0.000431  -0.000023  -0.000048   0.000003  -0.000017   0.000005
    27  C    0.001255   0.000692  -0.000014   0.000002   0.000114   0.000212
    28  H   -0.002920   0.013033  -0.000058   0.000021   0.000936  -0.000167
    29  C   -0.000376   0.000005   0.000000  -0.000001   0.000015  -0.000025
    30  H   -0.000008   0.000000   0.000000   0.000000   0.000000   0.000001
    31  H    0.000071  -0.000013   0.000000   0.000000  -0.000012   0.000010
    32  H    0.000002   0.000001   0.000000   0.000000   0.000000  -0.000002
              7          8          9         10         11         12
     1  C   -0.005232  -0.000307   0.000450  -0.000241   0.000034  -0.061263
     2  O   -0.000563  -0.000020  -0.000002   0.000002   0.000000  -0.012980
     3  N    0.298386  -0.094508  -0.000064   0.015575   0.005076  -0.001409
     4  H   -0.014315   0.007106  -0.000184  -0.000857  -0.000379  -0.000078
     5  N   -0.000078  -0.000077  -0.000033   0.000079  -0.000002   0.277769
     6  H   -0.000006   0.000006   0.000001  -0.000005   0.000000  -0.027364
     7  C    4.617086   0.281071  -0.019781  -0.037247  -0.028749  -0.000037
     8  C    0.281071   5.007876   0.377984   0.379362   0.402449   0.000006
     9  H   -0.019781   0.377984   0.571811  -0.030288  -0.018321   0.000002
    10  H   -0.037247   0.379362  -0.030288   0.565644  -0.021479  -0.000007
    11  H   -0.028749   0.402449  -0.018321  -0.021479   0.529494   0.000000
    12  C   -0.000037   0.000006   0.000002  -0.000007   0.000000   4.810985
    13  H    0.000000   0.000000   0.000000   0.000000   0.000000   0.400450
    14  H    0.000008   0.000000   0.000000   0.000001   0.000000   0.403583
    15  H    0.000026  -0.000002   0.000000   0.000004   0.000000   0.397982
    16  O    0.679184  -0.079224  -0.001015   0.004411   0.003549  -0.000001
    17  C   -0.029883  -0.002277   0.003062  -0.000955   0.000221   0.007572
    18  H   -0.003804  -0.000065  -0.000913   0.000040  -0.000066  -0.000080
    19  C   -0.007561  -0.001682   0.000286   0.000577  -0.000123  -0.000794
    20  H    0.000481  -0.001439  -0.000207   0.000206   0.000202   0.000009
    21  H    0.000206   0.000113  -0.000018  -0.000040  -0.000006   0.000007
    22  C    0.003378   0.000690  -0.000197  -0.000081  -0.000003   0.000075
    23  C   -0.000031  -0.000023   0.000132  -0.000003  -0.000002   0.000018
    24  C   -0.000197  -0.000023   0.000005   0.000002   0.000000  -0.000025
    25  C   -0.000004   0.000003  -0.000002  -0.000001   0.000000  -0.000001
    26  H   -0.000130   0.000051   0.000393  -0.000004  -0.000002   0.000002
    27  C   -0.000001   0.000000   0.000000   0.000000   0.000000  -0.000005
    28  H   -0.000006  -0.000001   0.000001   0.000000   0.000000   0.000113
    29  C    0.000000   0.000000   0.000000   0.000000   0.000000  -0.000002
    30  H    0.000000   0.000000  -0.000001   0.000000   0.000000   0.000000
    31  H    0.000000   0.000000   0.000000   0.000000   0.000000   0.000000
    32  H    0.000000   0.000000   0.000000   0.000000   0.000000   0.000000
             13         14         15         16         17         18
     1  C    0.006685  -0.013620   0.000468  -0.001216   0.213532  -0.016816
     2  O    0.001019   0.017808  -0.001304   0.000013  -0.085785   0.004730
     3  N    0.000003  -0.000119   0.001265  -0.111022   0.296444  -0.019530
     4  H    0.000000  -0.000111   0.000086   0.003919  -0.046718   0.005770
     5  N   -0.024357  -0.054773  -0.032219   0.000000  -0.083357   0.015299
     6  H   -0.004215  -0.008871   0.007001   0.000000   0.004179  -0.000896
     7  C    0.000000   0.000008   0.000026   0.679184  -0.029883  -0.003804
     8  C    0.000000   0.000000  -0.000002  -0.079224  -0.002277  -0.000065
     9  H    0.000000   0.000000   0.000000  -0.001015   0.003062  -0.000913
    10  H    0.000000   0.000001   0.000004   0.004411  -0.000955   0.000040
    11  H    0.000000   0.000000   0.000000   0.003549   0.000221  -0.000066
    12  C    0.400450   0.403583   0.397982  -0.000001   0.007572  -0.000080
    13  H    0.579074  -0.034232  -0.020163   0.000000  -0.000084  -0.000108
    14  H   -0.034232   0.618799  -0.048531   0.000000   0.002563   0.000261
    15  H   -0.020163  -0.048531   0.585016   0.000001  -0.000932  -0.000284
    16  O    0.000000   0.000000   0.000001   7.832178  -0.005897  -0.000207
    17  C   -0.000084   0.002563  -0.000932  -0.005897   5.325328   0.388875
    18  H   -0.000108   0.000261  -0.000284  -0.000207   0.388875   0.427407
    19  C    0.000004   0.000130   0.000007  -0.001706   0.208305  -0.035181
    20  H    0.000000  -0.000002   0.000004   0.009317  -0.033204  -0.004069
    21  H   -0.000001  -0.000047  -0.000019   0.001107  -0.039399   0.003862
    22  C    0.000003   0.000173  -0.000014   0.001448   0.013878   0.004616
    23  C    0.000001   0.000008  -0.000001  -0.000087   0.001137  -0.002542
    24  C    0.000001   0.000106   0.000003  -0.000024  -0.017416   0.001543
    25  C    0.000000  -0.000004   0.000000  -0.000002   0.000385   0.000285
    26  H    0.000000   0.000000   0.000000  -0.000053  -0.001086   0.000110
    27  C   -0.000002  -0.000002   0.000001   0.000000  -0.001267   0.000005
    28  H    0.000005  -0.000006   0.000001  -0.000001   0.000425  -0.000261
    29  C    0.000000   0.000003   0.000000   0.000000  -0.000188  -0.000098
    30  H    0.000000   0.000000   0.000000   0.000000   0.000047   0.000021
    31  H    0.000000   0.000006   0.000000   0.000000   0.000010   0.000002
    32  H    0.000000   0.000000   0.000000   0.000000   0.000000  -0.000001
             19         20         21         22         23         24
     1  C   -0.100875   0.007445   0.001834   0.008087  -0.000583   0.002657
     2  O    0.013667   0.000369   0.008631  -0.017693  -0.000868  -0.007870
     3  N   -0.094191  -0.005878   0.003026   0.006203   0.000322  -0.000213
     4  H   -0.006577  -0.000215   0.006342   0.001845  -0.000158   0.000238
     5  N    0.005577  -0.000088   0.000786  -0.004163  -0.000795  -0.000494
     6  H   -0.001613   0.000012  -0.000026   0.001705   0.000292   0.001213
     7  C   -0.007561   0.000481   0.000206   0.003378  -0.000031  -0.000197
     8  C   -0.001682  -0.001439   0.000113   0.000690  -0.000023  -0.000023
     9  H    0.000286  -0.000207  -0.000018  -0.000197   0.000132   0.000005
    10  H    0.000577   0.000206  -0.000040  -0.000081  -0.000003   0.000002
    11  H   -0.000123   0.000202  -0.000006  -0.000003  -0.000002   0.000000
    12  C   -0.000794   0.000009   0.000007   0.000075   0.000018  -0.000025
    13  H    0.000004   0.000000  -0.000001   0.000003   0.000001   0.000001
    14  H    0.000130  -0.000002  -0.000047   0.000173   0.000008   0.000106
    15  H    0.000007   0.000004  -0.000019  -0.000014  -0.000001   0.000003
    16  O   -0.001706   0.009317   0.001107   0.001448  -0.000087  -0.000024
    17  C    0.208305  -0.033204  -0.039399   0.013878   0.001137  -0.017416
    18  H   -0.035181  -0.004069   0.003862   0.004616  -0.002542   0.001543
    19  C    5.519365   0.421569   0.397645   0.143352  -0.044163  -0.039015
    20  H    0.421569   0.419545  -0.000571  -0.044783  -0.004249   0.003942
    21  H    0.397645  -0.000571   0.425373  -0.025434   0.001462   0.002705
    22  C    0.143352  -0.044783  -0.025434   5.421521   0.323800   0.285193
    23  C   -0.044163  -0.004249   0.001462   0.323800   5.215768  -0.015862
    24  C   -0.039015   0.003942   0.002705   0.285193  -0.015862   5.321142
    25  C    0.000799   0.000106   0.000070  -0.030027   0.413119  -0.035646
    26  H    0.003379   0.000313   0.000234  -0.081875   0.453004   0.006534
    27  C    0.006586  -0.000132   0.000474  -0.036699  -0.038432   0.394027
    28  H   -0.000333   0.000187   0.001010  -0.066064   0.004913   0.440775
[...]
 Alpha virt. eigenvalues --    5.70850   5.71629   5.72791   5.77552   5.78216
 Alpha virt. eigenvalues --    5.81745   5.83442   5.86587   5.88061   5.90652
 Alpha virt. eigenvalues --    5.92933   5.96808   5.98669   5.99168   6.01197
 Alpha virt. eigenvalues --    6.01454   6.03122   6.06731   6.08247   6.25028
 Alpha virt. eigenvalues --    6.28083   6.29385   6.30177   6.38995   6.48127
 Alpha virt. eigenvalues --    6.49546   6.51694   6.57978   6.61838   6.66319
 Alpha virt. eigenvalues --    6.75143   6.89288   6.90687   6.91647   6.93782
 Alpha virt. eigenvalues --    7.08550   7.10305   7.15530   7.17751   8.92876
 Alpha virt. eigenvalues --    9.44931   9.55044  12.04854  12.36455  12.68372
 Alpha virt. eigenvalues --   12.75140  12.87870  12.90936  13.18784  13.36558
 Alpha virt. eigenvalues --   13.47273  13.58820  13.63915  13.87904  15.63990
          Condensed to atoms (all electrons):
              1          2          3          4          5          6
     1  C    4.653319   0.719537  -0.030447  -0.010441   0.366004  -0.025378
     2  O    0.719537   7.823958  -0.018161   0.025711  -0.111201   0.004697
     3  N   -0.030447  -0.018161   6.530955   0.337120  -0.001249   0.000458
     4  H   -0.010441   0.025711   0.337120   0.509704   0.002314  -0.000219
     5  N    0.366004  -0.111201  -0.001249   0.002314   6.444387   0.381743
     6  H   -0.025378   0.004697   0.000458  -0.000219   0.381743   0.517465
     7  C    0.000451  -0.001827   0.365322  -0.016546  -0.000418   0.000011
     8  C   -0.000494  -0.000170  -0.125343   0.013445  -0.000148   0.000074
     9  H    0.001634  -0.000035   0.001289  -0.001073  -0.000032   0.000029
    10  H   -0.000624  -0.000010   0.003860  -0.000902  -0.000024  -0.000006
    11  H    0.000031   0.000002   0.007123  -0.000557   0.000000  -0.000001
    12  C   -0.056955  -0.013622  -0.000368  -0.000054   0.271883  -0.030802
    13  H    0.003656   0.000340   0.000030   0.000008  -0.026195  -0.004705
    14  H    0.002948   0.000390  -0.000027  -0.000008  -0.051946  -0.004368
    15  H   -0.012350   0.024166   0.000008  -0.000166  -0.036285   0.006032
    16  O   -0.000390   0.000010  -0.150764   0.016406   0.000000  -0.000001
    17  C    0.202155  -0.086078   0.336150  -0.036025  -0.075972   0.007571
    18  H   -0.032074   0.002995  -0.031279   0.004481   0.008899  -0.002281
    19  C   -0.053152   0.000315  -0.064138  -0.000665  -0.003188  -0.002775
    20  H    0.006431  -0.000035  -0.001848  -0.000346  -0.000411   0.000018
    21  H   -0.006395   0.008824   0.002119   0.002644   0.001881  -0.000224
    22  C    0.021630  -0.003042   0.012422  -0.000367   0.003133  -0.000091
    23  C   -0.000911  -0.000158   0.000652  -0.000065  -0.001802   0.002909
    24  C   -0.001053  -0.001440  -0.000364   0.000132  -0.007372  -0.003228
    25  C   -0.000100  -0.000003   0.000000   0.000003   0.000805   0.002176
    26  H    0.000104  -0.000006  -0.000064  -0.000026   0.000042  -0.000126
    27  C   -0.000549  -0.000046  -0.000009   0.000000   0.001192   0.000301
    28  H    0.002373   0.003448  -0.000031  -0.000049  -0.004890   0.000099
    29  C    0.000030   0.000008  -0.000001  -0.000001  -0.000793   0.000215
    30  H   -0.000009   0.000000   0.000000   0.000000   0.000019   0.000032
    31  H   -0.000024  -0.000011   0.000000   0.000000   0.000090   0.000009
    32  H    0.000001   0.000000   0.000000   0.000000  -0.000002   0.000000
              7          8          9         10         11         12
     1  C    0.000451  -0.000494   0.001634  -0.000624   0.000031  -0.056955
     2  O   -0.001827  -0.000170  -0.000035  -0.000010   0.000002  -0.013622
     3  N    0.365322  -0.125343   0.001289   0.003860   0.007123  -0.000368
     4  H   -0.016546   0.013445  -0.001073  -0.000902  -0.000557  -0.000054
     5  N   -0.000418  -0.000148  -0.000032  -0.000024   0.000000   0.271883
     6  H    0.000011   0.000074   0.000029  -0.000006  -0.000001  -0.030802
     7  C    4.470191   0.241300  -0.025355  -0.026759  -0.028949  -0.000014
     8  C    0.241300   5.284150   0.356986   0.372266   0.386048   0.000003
     9  H   -0.025355   0.356986   0.569802  -0.038015  -0.009494   0.000003
    10  H   -0.026759   0.372266  -0.038015   0.566321  -0.008795   0.000000
    11  H   -0.028949   0.386048  -0.009494  -0.008795   0.503846   0.000000
    12  C   -0.000014   0.000003   0.000003   0.000000   0.000000   4.839609
    13  H    0.000001   0.000000   0.000000   0.000000   0.000000   0.402016
    14  H   -0.000001   0.000000   0.000000   0.000000   0.000000   0.399667
    15  H    0.000011   0.000002   0.000000   0.000001   0.000000   0.394904
    16  O    0.790435  -0.095058   0.002162   0.000945   0.010773   0.000000
    17  C   -0.044419  -0.002963   0.004187  -0.005932   0.000662   0.008452
    18  H   -0.005668  -0.000192  -0.005621   0.000163  -0.000026   0.000388
    19  C   -0.000695  -0.007959   0.002102   0.001014   0.000217  -0.000740
    20  H   -0.000376  -0.000913   0.001325   0.000228   0.000080   0.000038
    21  H   -0.000723   0.000074   0.000275  -0.000086   0.000001   0.000050
    22  C   -0.000952  -0.000600  -0.000966   0.000152   0.000017  -0.001431
    23  C    0.000091  -0.000298   0.000669  -0.000037  -0.000001   0.000478
    24  C   -0.000001  -0.000026  -0.000071   0.000003   0.000000  -0.000882
    25  C    0.000005   0.000003  -0.000046  -0.000004   0.000000  -0.000116
    26  H   -0.000074   0.000207   0.001924   0.000118   0.000050   0.000009
    27  C    0.000001   0.000001   0.000000   0.000000   0.000000  -0.001736
    28  H   -0.000006   0.000001   0.000000   0.000000   0.000000   0.001205
    29  C   -0.000001   0.000000   0.000004   0.000000   0.000000   0.000340
    30  H    0.000000  -0.000001  -0.000007   0.000000   0.000000  -0.000002
    31  H    0.000000   0.000000   0.000000   0.000000   0.000000  -0.000040
    32  H    0.000000   0.000000   0.000000   0.000000   0.000000   0.000007
             13         14         15         16         17         18
     1  C    0.003656   0.002948  -0.012350  -0.000390   0.202155  -0.032074
     2  O    0.000340   0.000390   0.024166   0.000010  -0.086078   0.002995
     3  N    0.000030  -0.000027   0.000008  -0.150764   0.336150  -0.031279
     4  H    0.000008  -0.000008  -0.000166   0.016406  -0.036025   0.004481
     5  N   -0.026195  -0.051946  -0.036285   0.000000  -0.075972   0.008899
     6  H   -0.004705  -0.004368   0.006032  -0.000001   0.007571  -0.002281
     7  C    0.000001  -0.000001   0.000011   0.790435  -0.044419  -0.005668
     8  C    0.000000   0.000000   0.000002  -0.095058  -0.002963  -0.000192
     9  H    0.000000   0.000000   0.000000   0.002162   0.004187  -0.005621
    10  H    0.000000   0.000000   0.000001   0.000945  -0.005932   0.000163
    11  H    0.000000   0.000000   0.000000   0.010773   0.000662  -0.000026
    12  C    0.402016   0.399667   0.394904   0.000000   0.008452   0.000388
    13  H    0.578179  -0.038280  -0.018574   0.000000   0.000045  -0.000150
    14  H   -0.038280   0.608760  -0.034826   0.000000  -0.001355   0.000242
    15  H   -0.018574  -0.034826   0.533341   0.000000   0.004341  -0.000389
    16  O    0.000000   0.000000   0.000000   7.792842   0.001213   0.000206
    17  C    0.000045  -0.001355   0.004341   0.001213   5.350685   0.412530
    18  H   -0.000150   0.000242  -0.000389   0.000206   0.412530   0.463424
    19  C   -0.000071   0.000883  -0.000466  -0.000857   0.177954  -0.053031
    20  H   -0.000001   0.000001   0.000005  -0.000104  -0.048016  -0.002198
    21  H   -0.000001   0.000030  -0.000130  -0.000033  -0.037283   0.005433
    22  C    0.000115  -0.001831   0.000325  -0.000055   0.007110   0.006845
    23  C   -0.000002  -0.000221   0.000005   0.000000  -0.000880  -0.001158
    24  C    0.000040   0.002062  -0.000324   0.000000  -0.014795   0.003173
    25  C    0.000004  -0.000298   0.000011   0.000000   0.001932  -0.000368
    26  H    0.000000   0.000000   0.000000   0.000003  -0.001712   0.000877
    27  C    0.000025   0.000482   0.000123   0.000000   0.000878  -0.000366
    28  H   -0.000037   0.001362   0.000021   0.000000  -0.001424   0.000129
    29  C   -0.000026   0.000826  -0.000008   0.000000  -0.000632   0.000051
    30  H    0.000001  -0.000006   0.000000   0.000000   0.000083   0.000002
    31  H   -0.000003   0.000039   0.000006   0.000000   0.000028  -0.000001
    32  H    0.000000   0.000009   0.000000   0.000000   0.000000   0.000001
             19         20         21         22         23         24
     1  C   -0.053152   0.006431  -0.006395   0.021630  -0.000911  -0.001053
     2  O    0.000315  -0.000035   0.008824  -0.003042  -0.000158  -0.001440
     3  N   -0.064138  -0.001848   0.002119   0.012422   0.000652  -0.000364
     4  H   -0.000665  -0.000346   0.002644  -0.000367  -0.000065   0.000132
     5  N   -0.003188  -0.000411   0.001881   0.003133  -0.001802  -0.007372
     6  H   -0.002775   0.000018  -0.000224  -0.000091   0.002909  -0.003228
     7  C   -0.000695  -0.000376  -0.000723  -0.000952   0.000091  -0.000001
     8  C   -0.007959  -0.000913   0.000074  -0.000600  -0.000298  -0.000026
     9  H    0.002102   0.001325   0.000275  -0.000966   0.000669  -0.000071
    10  H    0.001014   0.000228  -0.000086   0.000152  -0.000037   0.000003
    11  H    0.000217   0.000080   0.000001   0.000017  -0.000001   0.000000
    12  C   -0.000740   0.000038   0.000050  -0.001431   0.000478  -0.000882
    13  H   -0.000071  -0.000001  -0.000001   0.000115  -0.000002   0.000040
    14  H    0.000883   0.000001   0.000030  -0.001831  -0.000221   0.002062
    15  H   -0.000466   0.000005  -0.000130   0.000325   0.000005  -0.000324
    16  O   -0.000857  -0.000104  -0.000033  -0.000055   0.000000   0.000000
    17  C    0.177954  -0.048016  -0.037283   0.007110  -0.000880  -0.014795
    18  H   -0.053031  -0.002198   0.005433   0.006845  -0.001158   0.003173
    19  C    5.578893   0.427583   0.405655   0.074300  -0.054970  -0.025602
    20  H    0.427583   0.439624  -0.001371  -0.041514  -0.006499   0.004606
    21  H    0.405655  -0.001371   0.434299  -0.038716   0.004987   0.003811
    22  C    0.074300  -0.041514  -0.038716   5.556779   0.258213   0.236583
    23  C   -0.054970  -0.006499   0.004987   0.258213   5.347124   0.011202
    24  C   -0.025602   0.004606   0.003811   0.236583   0.011202   5.339088
    25  C    0.003191   0.000137  -0.000339  -0.020951   0.383959  -0.047863
    26  H    0.004982  -0.001942   0.000306  -0.087311   0.447381   0.004309
    27  C    0.004671  -0.000322  -0.000061  -0.008001  -0.052021   0.353611
    28  H    0.002522   0.000480   0.001702  -0.083513   0.007187   0.451772
    29  C    0.000202   0.000031   0.000133  -0.056456  -0.020778  -0.014306
    30  H   -0.000362  -0.000012   0.000012   0.011397  -0.065187  -0.002650
    31  H   -0.000311   0.000014  -0.000048   0.012371  -0.003032  -0.069315
    32  H    0.000028  -0.000001  -0.000001  -0.003291   0.011744   0.011205
             25         26         27         28         29         30
     1  C   -0.000100   0.000104  -0.000549   0.002373   0.000030  -0.000009
     2  O   -0.000003  -0.000006  -0.000046   0.003448   0.000008   0.000000
     3  N    0.000000  -0.000064  -0.000009  -0.000031  -0.000001   0.000000
     4  H    0.000003  -0.000026   0.000000  -0.000049  -0.000001   0.000000
     5  N    0.000805   0.000042   0.001192  -0.004890  -0.000793   0.000019
     6  H    0.002176  -0.000126   0.000301   0.000099   0.000215   0.000032
     7  C    0.000005  -0.000074   0.000001  -0.000006  -0.000001   0.000000
     8  C    0.000003   0.000207   0.000001   0.000001   0.000000  -0.000001
     9  H   -0.000046   0.001924   0.000000   0.000000   0.000004  -0.000007
    10  H   -0.000004   0.000118   0.000000   0.000000   0.000000   0.000000
    11  H    0.000000   0.000050   0.000000   0.000000   0.000000   0.000000
    12  C   -0.000116   0.000009  -0.001736   0.001205   0.000340  -0.000002
    13  H    0.000004   0.000000   0.000025  -0.000037  -0.000026   0.000001
    14  H   -0.000298   0.000000   0.000482   0.001362   0.000826  -0.000006
    15  H    0.000011   0.000000   0.000123   0.000021  -0.000008   0.000000
    16  O    0.000000   0.000003   0.000000   0.000000   0.000000   0.000000
    17  C    0.001932  -0.001712   0.000878  -0.001424  -0.000632   0.000083
    18  H   -0.000368   0.000877  -0.000366   0.000129   0.000051   0.000002
    19  C    0.003191   0.004982   0.004671   0.002522   0.000202  -0.000362
    20  H    0.000137  -0.001942  -0.000322   0.000480   0.000031  -0.000012
    21  H   -0.000339   0.000306  -0.000061   0.001702   0.000133   0.000012
    22  C   -0.020951  -0.087311  -0.008001  -0.083513  -0.056456   0.011397
    23  C    0.383959   0.447381  -0.052021   0.007187  -0.020778  -0.065187
    24  C   -0.047863   0.004309   0.353611   0.451772  -0.014306  -0.002650
    25  C    5.078595  -0.024269  -0.020054  -0.002591   0.374537   0.462720
    26  H   -0.024269   0.474268  -0.001248  -0.000172   0.007108  -0.006109
    27  C   -0.020054  -0.001248   5.144841  -0.042624   0.358323   0.009294
    28  H   -0.002591  -0.000172  -0.042624   0.471945   0.009298   0.000033
    29  C    0.374537   0.007108   0.358323   0.009298   5.122087  -0.059391
    30  H    0.462720  -0.006109   0.009294   0.000033  -0.059391   0.528123
    31  H    0.009831   0.000049   0.465900  -0.006819  -0.061445  -0.000167
    32  H   -0.063749  -0.000196  -0.064307  -0.000143   0.465527  -0.008128
             31         32
     1  C   -0.000024   0.000001
     2  O   -0.000011   0.000000
     3  N    0.000000   0.000000
     4  H    0.000000   0.000000
     5  N    0.000090  -0.000002
     6  H    0.000009   0.000000
     7  C    0.000000   0.000000
     8  C    0.000000   0.000000
     9  H    0.000000   0.000000
    10  H    0.000000   0.000000
    11  H    0.000000   0.000000
    12  C   -0.000040   0.000007
    13  H   -0.000003   0.000000
    14  H    0.000039   0.000009
    15  H    0.000006   0.000000
    16  O    0.000000   0.000000
    17  C    0.000028   0.000000
    18  H   -0.000001   0.000001
    19  C   -0.000311   0.000028
    20  H    0.000014  -0.000001
    21  H   -0.000048  -0.000001
    22  C    0.012371  -0.003291
    23  C   -0.003032   0.011744
    24  C   -0.069315   0.011205
    25  C    0.009831  -0.063749
    26  H    0.000049  -0.000196
    27  C    0.465900  -0.064307
    28  H   -0.006819  -0.000143
    29  C   -0.061445   0.465527
    30  H   -0.000167  -0.008128
    31  H    0.519795  -0.008152
    32  H   -0.008152   0.528893
 Mulliken atomic charges:
              1
     1  C    0.251043
     2  O   -0.378556
     3  N   -0.173416
     4  H    0.155544
     5  N   -0.160465
     6  H    0.150367
     7  C    0.284964
     8  C   -0.420394
     9  H    0.138327
    10  H    0.136124
    11  H    0.138972
    12  C   -0.212291
    13  H    0.103584
    14  H    0.115469
    15  H    0.140216
    16  O   -0.367733
    17  C   -0.158487
    18  H    0.224962
    19  C   -0.415531
    20  H    0.225309
    21  H    0.213174
    22  C    0.147695
    23  C   -0.268580
    24  C   -0.232305
    25  C   -0.137158
    26  H    0.181514
    27  C   -0.148298
    28  H    0.188723
    29  C   -0.124883
    30  H    0.130316
    31  H    0.141237
    32  H    0.130557
 Sum of Mulliken atomic charges =   0.00000
 Mulliken charges with hydrogens summed into heavy atoms:
              1
     1  C    0.251043
     2  O   -0.378556
     3  N   -0.017871
     5  N   -0.010097
     7  C    0.284964
     8  C   -0.006971
    12  C    0.146978
    16  O   -0.367733
    17  C    0.066475
    19  C    0.022951
    22  C    0.147695
    23  C   -0.087066
    24  C   -0.043582
    25  C   -0.006842
    27  C   -0.007061
    29  C    0.005674
 Sum of Mulliken charges with hydrogens summed into heavy atoms =   0.00000
 Electronic spatial extent (au):  <R**2>=           4073.3599
 Charge=              0.0000 electrons
 Dipole moment (field-independent basis, Debye):
    X=              6.0505    Y=             -1.3346    Z=              3.0957  Tot=              6.9263
 Quadrupole moment (field-independent basis, Debye-Ang):
   XX=           -114.2026   YY=            -94.3887   ZZ=            -92.0824
   XY=              5.1726   XZ=             -2.8261   YZ=              0.5363
 Traceless Quadrupole moment (field-independent basis, Debye-Ang):
   XX=            -13.9780   YY=              5.8359   ZZ=              8.1421
   XY=              5.1726   XZ=             -2.8261   YZ=              0.5363
 Octapole moment (field-independent basis, Debye-Ang**2):
  XXX=            146.0520  YYY=              6.5693  ZZZ=              3.6411  XYY=             -1.1701
  XXY=             12.3384  XXZ=             23.5231  XZZ=             -6.8812  YZZ=              5.7152
  YYZ=             20.4330  XYZ=             -3.1144
 Hexadecapole moment (field-independent basis, Debye-Ang**3):
 XXXX=          -4064.1734 YYYY=          -1405.8687 ZZZZ=           -447.0565 XXXY=            -37.1528
 XXXZ=            -64.2440 YYYX=             63.5895 YYYZ=             17.3746 ZZZX=             15.6830
 ZZZY=             -2.2094 XXYY=           -793.3440 XXZZ=           -654.7064 YYZZ=           -309.5861
 XXYZ=            -53.2232 YYXZ=             22.2865 ZZXY=             13.6440
 N-N= 1.105168416902D+03 E-N=-3.901996285953D+03  KE= 7.214862600866D+02
 Calculating spin-rotation constants.
 Leave Link  601 at Thu Apr  4 17:53:05 2013, MaxMem= 4294967296 cpu:    1309.0
 (Enter /system/software/linux-x86_64/gaussian/g09/A.02__pgi_8.0-6__acml/l9999.exe)

 Test job not archived.
 1\1\GINC-CARIBOU\SP\RM06\Gen\C12H16N2O2\KUPROV\04-Apr-2013\0\\#P Geom=
 AllCheck Guess=TCheck SCRF=Check GenChk RM06/ChkBas NMR=ReadFC IOp(3/6
 =22)\\J-coupling calculation 1\\0,1\C,0,0.3251376312,1.7396904728,1.00
 08656417\O,0,-0.4408691445,2.6806539497,1.0044178588\N,0,-1.3426156294
 ,0.2911350409,0.0833389131\H,0,-1.9337378627,1.1024644592,0.2119553838
 \N,0,1.453619613,1.6786216324,1.741309745\H,0,2.0819859451,0.908888373
 5,1.5815371848\C,0,-1.9815037378,-0.8877896668,-0.1659900557\C,0,-1.10
 46138154,-2.1010621595,-0.3450965189\H,0,-0.3409117824,-1.9528850587,-
 1.1108077744\H,0,-0.5924340009,-2.345544266,0.5876091301\H,0,-1.737239
 6125,-2.9374239741,-0.6266474134\C,0,1.9308151664,2.80946157,2.5004087
 805\H,0,2.2900503897,2.4915235237,3.4780850916\H,0,2.7370682492,3.3310
 197624,1.9788608601\H,0,1.1006498726,3.4985374282,2.6332260263\O,0,-3.
 1883258558,-0.954308065,-0.213754227\C,0,0.0720853117,0.5446747339,0.0
 903815479\H,0,0.6053126061,-0.3321226809,0.4708764519\C,0,0.6031305046
 ,0.8863853716,-1.3152339205\H,0,0.3110744993,0.0758502343,-1.988372512
 5\H,0,0.0841027099,1.7885973295,-1.6497066485\C,0,2.0856192112,1.07823
 45768,-1.3303278354\C,0,2.9313954644,-0.0250469011,-1.3100878675\C,0,2
 .6454623203,2.348143514,-1.277845374\C,0,4.3040985377,0.1346482349,-1.
 2316792103\H,0,2.5026026337,-1.02181787,-1.3607729059\C,0,4.0178909002
 ,2.5127912691,-1.2019505307\H,0,1.9913380218,3.213911366,-1.2828462408
 \C,0,4.8504991059,1.4063763991,-1.1747545447\H,0,4.9495754675,-0.73419
 71818,-1.2213677344\H,0,4.4394131439,3.5091575324,-1.1647794696\H,0,5.
 9234386461,1.5344304696,-1.1169615514\\Version=EM64L-G09RevA.02\State=
 1-A\HF=-726.6458022\RMSD=4.267e-09\Dipole=2.7052962,-0.2043366,0.25547
 26\Quadrupole=-10.7166978,5.5197752,5.1969226,-2.2719272,3.1245558,-0.
 1106094\PG=C01 [X(C12H16N2O2)]\\@


 SUCCESS-- IF YOU HAVE TRIED TO DO SOMETHING AND FAILED
           YOU ARE BETTER OFF THAN IF YOU HAD TRIED TO DO
           NOTHING AND SUCCEEDED.

                   -- FROM THE BACK OF A SUGAR PACKET
 Job cpu time: 11 days 13 hours 42 minutes  0.0 seconds.
 File lengths (MBytes):  RWF=   2814 Int=      0 D2E=      0 Chk=     65 Scr=      1
 Normal termination of Gaussian 09 at Thu Apr  4 17:53:06 2013.
