 Entering Gaussian System, Link 0=g09
 Input=proline.gjf
 Output=proline.log
 Initial command:
 /system/software/linux-x86_64/gaussian/g09/D.01__pgi_12.10__atlas/l1.exe "/export/home/spin_dynamics/kuprov/zenawi/Gau-61479.inp" -scrdir="/export/home/spin_dynamics/kuprov/zenawi/"
 Entering Link 1 = /system/software/linux-x86_64/gaussian/g09/D.01__pgi_12.10__atlas/l1.exe PID=     61480.
  
 Copyright (c) 1988,1990,1992,1993,1995,1998,2003,2009,2013,
            Gaussian, Inc.  All Rights Reserved.
  
 This is part of the Gaussian(R) 09 program.  It is based on
 the Gaussian(R) 03 system (copyright 2003, Gaussian, Inc.),
 the Gaussian(R) 98 system (copyright 1998, Gaussian, Inc.),
 the Gaussian(R) 94 system (copyright 1995, Gaussian, Inc.),
 the Gaussian 92(TM) system (copyright 1992, Gaussian, Inc.),
 the Gaussian 90(TM) system (copyright 1990, Gaussian, Inc.),
 the Gaussian 88(TM) system (copyright 1988, Gaussian, Inc.),
 the Gaussian 86(TM) system (copyright 1986, Carnegie Mellon
 University), and the Gaussian 82(TM) system (copyright 1983,
 Carnegie Mellon University). Gaussian is a federally registered
 trademark of Gaussian, Inc.
  
 This software contains proprietary and confidential information,
 including trade secrets, belonging to Gaussian, Inc.
  
 This software is provided under written license and may be
 used, copied, transmitted, or stored only in accord with that
 written license.
  
 The following legend is applicable only to US Government
 contracts under FAR:
  
                    RESTRICTED RIGHTS LEGEND
  
 Use, reproduction and disclosure by the US Government is
 subject to restrictions as set forth in subparagraphs (a)
 and (c) of the Commercial Computer Software - Restricted
 Rights clause in FAR 52.227-19.
  
 Gaussian, Inc.
 340 Quinnipiac St., Bldg. 40, Wallingford CT 06492
  
  
 ---------------------------------------------------------------
 Warning -- This program may not be used in any manner that
 competes with the business of Gaussian, Inc. or will provide
 assistance to any competitor of Gaussian, Inc.  The licensee
 of this program is prohibited from giving any competitor of
 Gaussian, Inc. access to this program.  By using this program,
 the user acknowledges that Gaussian, Inc. is engaged in the
 business of creating and licensing software in the field of
 computational chemistry and represents and warrants to the
 licensee that it is not a competitor of Gaussian, Inc. and that
 it will not use this program in any manner prohibited above.
 ---------------------------------------------------------------
  

 Cite this work as:
 Gaussian 09, Revision D.01,
 M. J. Frisch, G. W. Trucks, H. B. Schlegel, G. E. Scuseria, 
 M. A. Robb, J. R. Cheeseman, G. Scalmani, V. Barone, B. Mennucci, 
 G. A. Petersson, H. Nakatsuji, M. Caricato, X. Li, H. P. Hratchian, 
 A. F. Izmaylov, J. Bloino, G. Zheng, J. L. Sonnenberg, M. Hada, 
 M. Ehara, K. Toyota, R. Fukuda, J. Hasegawa, M. Ishida, T. Nakajima, 
 Y. Honda, O. Kitao, H. Nakai, T. Vreven, J. A. Montgomery, Jr., 
 J. E. Peralta, F. Ogliaro, M. Bearpark, J. J. Heyd, E. Brothers, 
 K. N. Kudin, V. N. Staroverov, T. Keith, R. Kobayashi, J. Normand, 
 K. Raghavachari, A. Rendell, J. C. Burant, S. S. Iyengar, J. Tomasi, 
 M. Cossi, N. Rega, J. M. Millam, M. Klene, J. E. Knox, J. B. Cross, 
 V. Bakken, C. Adamo, J. Jaramillo, R. Gomperts, R. E. Stratmann, 
 O. Yazyev, A. J. Austin, R. Cammi, C. Pomelli, J. W. Ochterski, 
 R. L. Martin, K. Morokuma, V. G. Zakrzewski, G. A. Voth, 
 P. Salvador, J. J. Dannenberg, S. Dapprich, A. D. Daniels, 
 O. Farkas, J. B. Foresman, J. V. Ortiz, J. Cioslowski, 
 and D. J. Fox, Gaussian, Inc., Wallingford CT, 2013.
 
 ******************************************
 Gaussian 09:  EM64L-G09RevD.01 24-Apr-2013
                26-Sep-2013 
 ******************************************
 %Chk=proline.chk
 %Mem=64GB
 %NProcShared=16
 Will use up to   16 processors via shared memory.
 ------------------------------------------------------------
 #p opt=tight m06/cc-pvtz scf=tight integral=(grid=ultrafine)
 ------------------------------------------------------------
 1/7=10,14=-1,18=20,19=15,26=4,38=1/1,3;
 2/9=110,12=2,17=6,18=5,40=1/2;
 3/5=16,6=1,11=2,16=1,25=1,30=1,71=1,74=-54,75=-5/1,2,3;
 4//1;
 5/5=2,32=2,38=5/2;
 6/7=2,8=2,9=2,10=2,28=1/1;
 7//1,2,3,16;
 1/7=10,14=-1,18=20,19=15,26=4/3(2);
 2/9=110/2;
 99//99;
 2/9=110/2;
 3/5=16,6=1,11=2,16=1,25=1,30=1,71=1,74=-54,75=-5/1,2,3;
 4/5=5,16=3,69=1/1;
 5/5=2,32=2,38=5/2;
 7//1,2,3,16;
 1/7=10,14=-1,18=20,19=15,26=4/3(-5);
 2/9=110/2;
 6/7=2,8=2,9=2,10=2,19=2,28=1/1;
 99/9=1/99;
 Leave Link    1 at Thu Sep 26 15:23:22 2013, MaxMem=  8589934592 cpu:         1.2
 (Enter /system/software/linux-x86_64/gaussian/g09/D.01__pgi_12.10__atlas/l101.exe)
 ---------------------
 Geometry optimisation
 ---------------------
 Symbolic Z-matrix:
 Charge =  0 Multiplicity = 1
 C                     2.78626  -2.47965   0.68839 
 C                     4.01417  -2.46399  -0.22293 
 C                     4.66883  -1.23717   0.38352 
 C                     2.31651  -1.07152   0.37572 
 H                     2.06559  -3.23615   0.45762 
 H                     3.06215  -2.60051   1.71512 
 H                     3.73986  -2.31745  -1.24674 
 H                     4.62013  -3.34456  -0.17497 
 H                     4.96553  -1.51711   1.37271 
 H                     5.52404  -0.86373  -0.13999 
 H                     2.00035  -1.08344  -0.64643 
 C                     1.15941  -0.5478    1.2466 
 N                     3.55691  -0.23711   0.48256 
 O                     1.40565   0.0692    2.31537 
 N                    -0.23275  -0.76862   0.82942 
 H                    -0.53584  -0.00351   0.26131 
 C                    -1.09112  -0.86596   2.01879 
 H                    -1.0269    0.04258   2.58032 
 H                    -2.10446  -1.0267    1.71512 
 H                    -0.76682  -1.68463   2.62666 
 C                     3.47159   0.7614   -0.59289 
 C                     2.09895   1.30261  -1.03399 
 H                     1.85391   2.16818  -0.45466 
 H                     2.13565   1.56581  -2.07047 
 H                     1.35359   0.54985  -0.88333 
 O                     4.52019   1.17394  -1.15309 
 
 NAtoms=     26 NQM=       26 NQMF=       0 NMMI=      0 NMMIF=      0
                NMic=       0 NMicF=      0.
                    Isotopes and Nuclear Properties:
 (Nuclear quadrupole moments (NQMom) in fm**2, nuclear magnetic moments (NMagM)
  in nuclear magnetons)

  Atom         1           2           3           4           5           6           7           8           9          10
 IAtWgt=          12          12          12          12           1           1           1           1           1           1
 AtmWgt=  12.0000000  12.0000000  12.0000000  12.0000000   1.0078250   1.0078250   1.0078250   1.0078250   1.0078250   1.0078250
 NucSpn=           0           0           0           0           1           1           1           1           1           1
 AtZEff=   0.0000000   0.0000000   0.0000000   0.0000000   0.0000000   0.0000000   0.0000000   0.0000000   0.0000000   0.0000000
 NQMom=    0.0000000   0.0000000   0.0000000   0.0000000   0.0000000   0.0000000   0.0000000   0.0000000   0.0000000   0.0000000
 NMagM=    0.0000000   0.0000000   0.0000000   0.0000000   2.7928460   2.7928460   2.7928460   2.7928460   2.7928460   2.7928460
 AtZNuc=   6.0000000   6.0000000   6.0000000   6.0000000   1.0000000   1.0000000   1.0000000   1.0000000   1.0000000   1.0000000

  Atom        11          12          13          14          15          16          17          18          19          20
 IAtWgt=           1          12          14          16          14           1          12           1           1           1
 AtmWgt=   1.0078250  12.0000000  14.0030740  15.9949146  14.0030740   1.0078250  12.0000000   1.0078250   1.0078250   1.0078250
 NucSpn=           1           0           2           0           2           1           0           1           1           1
 AtZEff=   0.0000000   0.0000000   0.0000000   0.0000000   0.0000000   0.0000000   0.0000000   0.0000000   0.0000000   0.0000000
 NQMom=    0.0000000   0.0000000   2.0440000   0.0000000   2.0440000   0.0000000   0.0000000   0.0000000   0.0000000   0.0000000
 NMagM=    2.7928460   0.0000000   0.4037610   0.0000000   0.4037610   2.7928460   0.0000000   2.7928460   2.7928460   2.7928460
 AtZNuc=   1.0000000   6.0000000   7.0000000   8.0000000   7.0000000   1.0000000   6.0000000   1.0000000   1.0000000   1.0000000

  Atom        21          22          23          24          25          26
 IAtWgt=          12          12           1           1           1          16
 AtmWgt=  12.0000000  12.0000000   1.0078250   1.0078250   1.0078250  15.9949146
 NucSpn=           0           0           1           1           1           0
 AtZEff=   0.0000000   0.0000000   0.0000000   0.0000000   0.0000000   0.0000000
 NQMom=    0.0000000   0.0000000   0.0000000   0.0000000   0.0000000   0.0000000
 NMagM=    0.0000000   0.0000000   2.7928460   2.7928460   2.7928460   0.0000000
 AtZNuc=   6.0000000   6.0000000   1.0000000   1.0000000   1.0000000   8.0000000
 Leave Link  101 at Thu Sep 26 15:23:23 2013, MaxMem=  8589934592 cpu:        13.6
 (Enter /system/software/linux-x86_64/gaussian/g09/D.01__pgi_12.10__atlas/l103.exe)

 GradGradGradGradGradGradGradGradGradGradGradGradGradGradGradGradGradGrad
 Berny optimization.
 Initialization pass.
                           ----------------------------
                           !    Initial Parameters    !
                           ! (Angstroms and Degrees)  !
 --------------------------                            --------------------------
 ! Name  Definition              Value          Derivative Info.                !
 --------------------------------------------------------------------------------
 ! R1    R(1,2)                  1.5292         estimate D2E/DX2                !
 ! R2    R(1,4)                  1.517          estimate D2E/DX2                !
 ! R3    R(1,5)                  1.07           estimate D2E/DX2                !
 ! R4    R(1,6)                  1.07           estimate D2E/DX2                !
 ! R5    R(2,3)                  1.517          estimate D2E/DX2                !
 ! R6    R(2,7)                  1.07           estimate D2E/DX2                !
 ! R7    R(2,8)                  1.07           estimate D2E/DX2                !
 ! R8    R(3,9)                  1.07           estimate D2E/DX2                !
 ! R9    R(3,10)                 1.07           estimate D2E/DX2                !
 ! R10   R(3,13)                 1.4988         estimate D2E/DX2                !
 ! R11   R(4,11)                 1.07           estimate D2E/DX2                !
 ! R12   R(4,12)                 1.54           estimate D2E/DX2                !
 ! R13   R(4,13)                 1.4988         estimate D2E/DX2                !
 ! R14   R(12,14)                1.2584         estimate D2E/DX2                !
 ! R15   R(12,15)                1.47           estimate D2E/DX2                !
 ! R16   R(13,21)                1.47           estimate D2E/DX2                !
 ! R17   R(15,16)                1.0            estimate D2E/DX2                !
 ! R18   R(15,17)                1.47           estimate D2E/DX2                !
 ! R19   R(17,18)                1.07           estimate D2E/DX2                !
 ! R20   R(17,19)                1.07           estimate D2E/DX2                !
 ! R21   R(17,20)                1.07           estimate D2E/DX2                !
 ! R22   R(21,22)                1.54           estimate D2E/DX2                !
 ! R23   R(21,26)                1.2584         estimate D2E/DX2                !
 ! R24   R(22,23)                1.07           estimate D2E/DX2                !
 ! R25   R(22,24)                1.07           estimate D2E/DX2                !
 ! R26   R(22,25)                1.07           estimate D2E/DX2                !
 ! A1    A(2,1,4)               96.6793         estimate D2E/DX2                !
 ! A2    A(2,1,5)              114.8048         estimate D2E/DX2                !
 ! A3    A(2,1,6)              111.4664         estimate D2E/DX2                !
 ! A4    A(4,1,5)              113.7823         estimate D2E/DX2                !
 ! A5    A(4,1,6)              112.4867         estimate D2E/DX2                !
 ! A6    A(5,1,6)              107.5024         estimate D2E/DX2                !
 ! A7    A(1,2,3)               96.6936         estimate D2E/DX2                !
 ! A8    A(1,2,7)              111.454          estimate D2E/DX2                !
 ! A9    A(1,2,8)              114.8088         estimate D2E/DX2                !
 ! A10   A(3,2,7)              112.4812         estimate D2E/DX2                !
 ! A11   A(3,2,8)              113.7793         estimate D2E/DX2                !
 ! A12   A(7,2,8)              107.5049         estimate D2E/DX2                !
 ! A13   A(2,3,9)              106.1203         estimate D2E/DX2                !
 ! A14   A(2,3,10)             115.5666         estimate D2E/DX2                !
 ! A15   A(2,3,13)             104.2331         estimate D2E/DX2                !
 ! A16   A(9,3,10)             108.7837         estimate D2E/DX2                !
 ! A17   A(9,3,13)             108.6145         estimate D2E/DX2                !
 ! A18   A(10,3,13)            113.1048         estimate D2E/DX2                !
 ! A19   A(1,4,11)             106.1434         estimate D2E/DX2                !
 ! A20   A(1,4,12)             115.581          estimate D2E/DX2                !
 ! A21   A(1,4,13)             104.23           estimate D2E/DX2                !
 ! A22   A(11,4,12)            108.7838         estimate D2E/DX2                !
 ! A23   A(11,4,13)            108.5931         estimate D2E/DX2                !
 ! A24   A(12,4,13)            113.0915         estimate D2E/DX2                !
 ! A25   A(4,12,14)            120.0            estimate D2E/DX2                !
 ! A26   A(4,12,15)            120.0            estimate D2E/DX2                !
 ! A27   A(14,12,15)           120.0            estimate D2E/DX2                !
 ! A28   A(3,13,4)             103.7571         estimate D2E/DX2                !
 ! A29   A(3,13,21)            116.6126         estimate D2E/DX2                !
 ! A30   A(4,13,21)            106.1396         estimate D2E/DX2                !
 ! A31   A(12,15,16)           109.4712         estimate D2E/DX2                !
 ! A32   A(12,15,17)           109.4712         estimate D2E/DX2                !
 ! A33   A(16,15,17)           109.4712         estimate D2E/DX2                !
 ! A34   A(15,17,18)           109.4712         estimate D2E/DX2                !
 ! A35   A(15,17,19)           109.4712         estimate D2E/DX2                !
 ! A36   A(15,17,20)           109.4712         estimate D2E/DX2                !
 ! A37   A(18,17,19)           109.4712         estimate D2E/DX2                !
 ! A38   A(18,17,20)           109.4712         estimate D2E/DX2                !
 ! A39   A(19,17,20)           109.4712         estimate D2E/DX2                !
 ! A40   A(13,21,22)           120.0            estimate D2E/DX2                !
 ! A41   A(13,21,26)           120.0            estimate D2E/DX2                !
 ! A42   A(22,21,26)           120.0            estimate D2E/DX2                !
 ! A43   A(21,22,23)           109.4712         estimate D2E/DX2                !
 ! A44   A(21,22,24)           109.4712         estimate D2E/DX2                !
 ! A45   A(21,22,25)           109.4712         estimate D2E/DX2                !
 ! A46   A(23,22,24)           109.4712         estimate D2E/DX2                !
 ! A47   A(23,22,25)           109.4712         estimate D2E/DX2                !
 ! A48   A(24,22,25)           109.4712         estimate D2E/DX2                !
 ! D1    D(4,1,2,3)             56.2394         estimate D2E/DX2                !
 ! D2    D(4,1,2,7)            -61.134          estimate D2E/DX2                !
 ! D3    D(4,1,2,8)            176.3392         estimate D2E/DX2                !
 ! D4    D(5,1,2,3)            176.3324         estimate D2E/DX2                !
 ! D5    D(5,1,2,7)             58.959          estimate D2E/DX2                !
 ! D6    D(5,1,2,8)            -63.5677         estimate D2E/DX2                !
 ! D7    D(6,1,2,3)            -61.1371         estimate D2E/DX2                !
 ! D8    D(6,1,2,7)           -178.5106         estimate D2E/DX2                !
 ! D9    D(6,1,2,8)             58.9627         estimate D2E/DX2                !
 ! D10   D(2,1,4,11)            67.5546         estimate D2E/DX2                !
 ! D11   D(2,1,4,12)          -171.7674         estimate D2E/DX2                !
 ! D12   D(2,1,4,13)           -47.018          estimate D2E/DX2                !
 ! D13   D(5,1,4,11)           -53.3225         estimate D2E/DX2                !
 ! D14   D(5,1,4,12)            67.3555         estimate D2E/DX2                !
 ! D15   D(5,1,4,13)          -167.8951         estimate D2E/DX2                !
 ! D16   D(6,1,4,11)          -175.878          estimate D2E/DX2                !
 ! D17   D(6,1,4,12)           -55.1999         estimate D2E/DX2                !
 ! D18   D(6,1,4,13)            69.5495         estimate D2E/DX2                !
 ! D19   D(1,2,3,9)             67.6177         estimate D2E/DX2                !
 ! D20   D(1,2,3,10)          -171.7301         estimate D2E/DX2                !
 ! D21   D(1,2,3,13)           -46.9706         estimate D2E/DX2                !
 ! D22   D(7,2,3,9)           -175.8232         estimate D2E/DX2                !
 ! D23   D(7,2,3,10)           -55.1711         estimate D2E/DX2                !
 ! D24   D(7,2,3,13)            69.5884         estimate D2E/DX2                !
 ! D25   D(8,2,3,9)            -53.2712         estimate D2E/DX2                !
 ! D26   D(8,2,3,10)            67.381          estimate D2E/DX2                !
 ! D27   D(8,2,3,13)          -167.8595         estimate D2E/DX2                !
 ! D28   D(2,3,13,4)            18.2107         estimate D2E/DX2                !
 ! D29   D(2,3,13,21)          -98.07           estimate D2E/DX2                !
 ! D30   D(9,3,13,4)           -94.6004         estimate D2E/DX2                !
 ! D31   D(9,3,13,21)          149.1188         estimate D2E/DX2                !
 ! D32   D(10,3,13,4)          144.529          estimate D2E/DX2                !
 ! D33   D(10,3,13,21)          28.2483         estimate D2E/DX2                !
 ! D34   D(1,4,12,14)           90.2626         estimate D2E/DX2                !
 ! D35   D(1,4,12,15)          -89.7374         estimate D2E/DX2                !
 ! D36   D(11,4,12,14)        -150.5007         estimate D2E/DX2                !
 ! D37   D(11,4,12,15)          29.4993         estimate D2E/DX2                !
 ! D38   D(13,4,12,14)         -29.7619         estimate D2E/DX2                !
 ! D39   D(13,4,12,15)         150.2381         estimate D2E/DX2                !
 ! D40   D(1,4,13,3)            18.2902         estimate D2E/DX2                !
 ! D41   D(1,4,13,21)          141.7229         estimate D2E/DX2                !
 ! D42   D(11,4,13,3)          -94.5368         estimate D2E/DX2                !
 ! D43   D(11,4,13,21)          28.8959         estimate D2E/DX2                !
 ! D44   D(12,4,13,3)          144.616          estimate D2E/DX2                !
 ! D45   D(12,4,13,21)         -91.9512         estimate D2E/DX2                !
 ! D46   D(4,12,15,16)         -90.0            estimate D2E/DX2                !
 ! D47   D(4,12,15,17)         150.0            estimate D2E/DX2                !
 ! D48   D(14,12,15,16)         90.0            estimate D2E/DX2                !
 ! D49   D(14,12,15,17)        -30.0            estimate D2E/DX2                !
 ! D50   D(3,13,21,22)         147.477          estimate D2E/DX2                !
 ! D51   D(3,13,21,26)         -32.523          estimate D2E/DX2                !
 ! D52   D(4,13,21,22)          32.523          estimate D2E/DX2                !
 ! D53   D(4,13,21,26)        -147.477          estimate D2E/DX2                !
 ! D54   D(12,15,17,18)         60.0            estimate D2E/DX2                !
 ! D55   D(12,15,17,19)        180.0            estimate D2E/DX2                !
 ! D56   D(12,15,17,20)        -60.0            estimate D2E/DX2                !
 ! D57   D(16,15,17,18)        -60.0            estimate D2E/DX2                !
 ! D58   D(16,15,17,19)         60.0            estimate D2E/DX2                !
 ! D59   D(16,15,17,20)        180.0            estimate D2E/DX2                !
 ! D60   D(13,21,22,23)         90.0            estimate D2E/DX2                !
 ! D61   D(13,21,22,24)       -150.0            estimate D2E/DX2                !
 ! D62   D(13,21,22,25)        -30.0            estimate D2E/DX2                !
 ! D63   D(26,21,22,23)        -90.0            estimate D2E/DX2                !
 ! D64   D(26,21,22,24)         30.0            estimate D2E/DX2                !
 ! D65   D(26,21,22,25)        150.0            estimate D2E/DX2                !
 --------------------------------------------------------------------------------
 Trust Radius=3.00D-01 FncErr=1.00D-07 GrdErr=1.00D-06
 Number of steps in this run=    149 maximum allowed number of steps=    156.
 GradGradGradGradGradGradGradGradGradGradGradGradGradGradGradGradGradGrad

 Leave Link  103 at Thu Sep 26 15:23:23 2013, MaxMem=  8589934592 cpu:         0.3
 (Enter /system/software/linux-x86_64/gaussian/g09/D.01__pgi_12.10__atlas/l202.exe)
                          Input orientation:                          
 ---------------------------------------------------------------------
 Center     Atomic      Atomic             Coordinates (Angstroms)
 Number     Number       Type             X           Y           Z
 ---------------------------------------------------------------------
      1          6           0        2.786259   -2.479648    0.688388
      2          6           0        4.014172   -2.463987   -0.222932
      3          6           0        4.668833   -1.237173    0.383520
      4          6           0        2.316511   -1.071517    0.375725
      5          1           0        2.065594   -3.236146    0.457623
      6          1           0        3.062151   -2.600514    1.715118
      7          1           0        3.739855   -2.317448   -1.246737
      8          1           0        4.620132   -3.344562   -0.174966
      9          1           0        4.965534   -1.517113    1.372712
     10          1           0        5.524039   -0.863734   -0.139993
     11          1           0        2.000353   -1.083442   -0.646431
     12          6           0        1.159407   -0.547796    1.246601
     13          7           0        3.556912   -0.237106    0.482564
     14          8           0        1.405647    0.069196    2.315365
     15          7           0       -0.232747   -0.768619    0.829415
     16          1           0       -0.535839   -0.003507    0.261313
     17          6           0       -1.091125   -0.865964    2.018790
     18          1           0       -1.026901    0.042583    2.580321
     19          1           0       -2.104462   -1.026700    1.715124
     20          1           0       -0.766817   -1.684634    2.626659
     21          6           0        3.471588    0.761403   -0.592889
     22          6           0        2.098952    1.302605   -1.033993
     23          1           0        1.853905    2.168183   -0.454659
     24          1           0        2.135649    1.565808   -2.070466
     25          1           0        1.353588    0.549854   -0.883333
     26          8           0        4.520185    1.173942   -1.153091
 ---------------------------------------------------------------------
                    Distance matrix (angstroms):
                    1          2          3          4          5
     1  C    0.000000
     2  C    1.529222   0.000000
     3  C    2.276131   1.517048   0.000000
     4  C    1.516989   2.275832   2.358160   0.000000
     5  H    1.070000   2.203711   3.283023   2.180662   0.000000
     6  H    1.070000   2.163567   2.492645   2.165130   1.725818
     7  H    2.163415   1.070000   2.165116   2.492114   2.559688
     8  H    2.203757   1.070000   2.180680   3.282782   2.633930
     9  H    2.478712   2.085123   1.070000   2.865286   3.493153
    10  H    3.285245   2.201678   1.070000   3.255361   4.236311
    11  H    2.085373   2.478048   2.864475   1.070000   2.420191
    12  C    2.586562   3.739117   3.679160   1.540000   2.944638
    13  N    2.380182   2.380296   1.498770   1.498750   3.349462
    14  O    3.324117   4.434452   4.010861   2.427572   3.848640
    15  N    3.473026   4.692337   4.944072   2.606971   3.392535
    16  H    4.165333   5.195291   5.350277   3.047890   4.154027
    17  C    4.405457   5.800262   5.999084   3.788654   4.244982
    18  H    4.947853   6.289160   6.237395   4.156906   4.981911
    19  H    5.204267   6.577198   6.906155   4.619632   4.883884
    20  H    4.124717   5.620090   5.897303   3.866462   3.890303
    21  C    3.551867   3.291566   2.526079   2.373186   4.365868
    22  C    4.212413   4.302685   3.881250   2.769674   4.777687
    23  H    4.876287   5.116390   4.496978   3.376270   5.484874
    24  H    4.939665   4.814715   4.505083   3.601673   5.427238
    25  H    3.701451   4.074073   3.973566   2.267442   4.079083
    26  O    4.443678   3.788902   2.862996   3.497934   5.297953
                    6          7          8          9         10
     6  H    0.000000
     7  H    3.051556   0.000000
     8  H    2.559947   1.725845   0.000000
     9  H    2.216725   3.000723   2.419541   0.000000
    10  H    3.538183   2.553718   2.640602   1.739859   0.000000
    11  H    3.000973   2.215627   3.492589   3.613490   3.566667
    12  C    2.837886   4.000889   4.671121   3.929642   4.590476
    13  N    2.711029   2.711415   3.349487   2.101190   2.156346
    14  O    3.198696   4.881923   5.309275   4.009709   4.884700
    15  N    3.872553   4.742452   5.585221   5.279919   5.838612
    16  H    4.669424   5.090196   6.159303   5.813030   6.133771
    17  C    4.511161   6.009063   6.601095   6.125727   6.958501
    18  H    4.945188   6.552716   7.138161   6.308745   7.150968
    19  H    5.400998   6.677925   7.359693   7.095252   7.852518
    20  H    4.041131   5.976098   6.294734   5.870290   6.921207
    21  C    4.098418   3.158925   4.284012   3.359628   2.656829
    22  C    4.870288   3.980277   5.356345   4.686185   4.150118
    23  H    5.376641   4.930018   6.174187   5.157803   4.770893
    24  H    5.705024   4.281552   5.820422   5.419237   4.594626
    25  H    4.426732   3.748033   5.132111   4.733735   4.465808
    26  O    4.959739   3.578756   4.624240   3.717499   2.487210
                   11         12         13         14         15
    11  H    0.000000
    12  C    2.139551   0.000000
    13  N    2.100902   2.535411   0.000000
    14  O    3.233340   1.258400   2.842696   0.000000
    15  N    2.695176   1.470000   3.842438   2.365231   0.000000
    16  H    2.902159   2.034920   4.105378   2.827328   1.000000
    17  C    4.087534   2.400500   4.935555   2.682602   1.470000
    18  H    4.565537   2.628174   5.048778   2.447081   2.086720
    19  H    4.735996   3.331921   5.847548   3.725875   2.086720
    20  H    4.328023   2.628174   5.038563   2.809346   2.086720
    21  C    2.360266   3.231703   1.470000   3.633897   4.252766
    22  C    2.419328   3.083478   2.606971   3.635955   3.633054
    23  H    3.260566   3.279200   3.092577   3.504242   3.824626
    24  H    3.010766   4.052568   3.433431   4.691297   4.412274
    25  H    1.772593   2.403989   2.709173   3.235029   2.681108
    26  O    3.420825   4.474118   2.365231   4.790720   5.504020
                   16         17         18         19         20
    16  H    0.000000
    17  C    2.034920   0.000000
    18  H    2.370879   1.070000   0.000000
    19  H    2.370879   1.070000   1.747303   0.000000
    20  H    2.911082   1.070000   1.747303   1.747303   0.000000
    21  C    4.168239   5.503412   5.551790   6.294169   5.857701
    22  C    3.213389   4.919224   4.941850   5.536424   5.525993
    23  H    3.307526   4.898694   4.693435   5.530271   5.586314
    24  H    3.877730   5.748704   5.826814   6.247426   6.407236
    25  H    2.277358   4.050121   4.233315   4.603869   4.670022
    26  O    5.380548   6.760832   6.781483   7.546882   7.100025
                   21         22         23         24         25
    21  C    0.000000
    22  C    1.540000   0.000000
    23  H    2.148263   1.070000   0.000000
    24  H    2.148263   1.070000   1.747303   0.000000
    25  H    2.148263   1.070000   1.747303   1.747303   0.000000
    26  O    1.258400   2.427572   2.930080   2.584792   3.238764
                   26
    26  O    0.000000
 Stoichiometry    C8H14N2O2
 Framework group  C1[X(C8H14N2O2)]
 Deg. of freedom    72
 Full point group                 C1      NOp   1
 Largest Abelian subgroup         C1      NOp   1
 Largest concise Abelian subgroup C1      NOp   1
                         Standard orientation:                         
 ---------------------------------------------------------------------
 Center     Atomic      Atomic             Coordinates (Angstroms)
 Number     Number       Type             X           Y           Z
 ---------------------------------------------------------------------
      1          6           0       -0.162527    1.963893   -0.365743
      2          6           0       -1.660572    1.940625   -0.672074
      3          6           0       -2.079900    1.154168    0.555560
      4          6           0        0.020056    0.461394   -0.263689
      5          1           0        0.442808    2.421881   -1.119876
      6          1           0        0.040553    2.464495    0.557868
      7          1           0       -1.865727    1.417690   -1.582761
      8          1           0       -2.119097    2.904704   -0.744230
      9          1           0       -1.899813    1.793974    1.394080
     10          1           0       -3.102456    0.839710    0.575460
     11          1           0       -0.134911    0.075230   -1.249469
     12          6           0        1.396679   -0.008326    0.242150
     13          7           0       -1.111928    0.011167    0.609328
     14          8           0        1.589376   -0.180102    1.473788
     15          7           0        2.485629   -0.256034   -0.713741
     16          1           0        2.456375   -1.209917   -1.012490
     17          6           0        3.777168    0.015260   -0.066263
     18          1           0        3.893327   -0.627617    0.781154
     19          1           0        4.569805   -0.165045   -0.762047
     20          1           0        3.808470    1.035915    0.253399
     21          6           0       -1.572992   -1.268928    0.052843
     22          6           0       -0.568859   -2.220969   -0.623126
     23          1           0       -0.163660   -2.889366    0.107600
     24          1           0       -1.067919   -2.784168   -1.383814
     25          1           0        0.222679   -1.650858   -1.062830
     26          8           0       -2.788209   -1.586806    0.128824
 ---------------------------------------------------------------------
 Rotational constants (GHZ):      1.4182877      0.6827316      0.5373586
 Leave Link  202 at Thu Sep 26 15:23:25 2013, MaxMem=  8589934592 cpu:         0.2
 (Enter /system/software/linux-x86_64/gaussian/g09/D.01__pgi_12.10__atlas/l301.exe)
 Standard basis: CC-pVTZ (5D, 7F)
 Ernie: Thresh=  0.10000D-02 Tol=  0.10000D-05 Strict=F.
 Ernie:  36 primitive shells out of 424 were deleted.
 There are   630 symmetry adapted cartesian basis functions of A   symmetry.
 There are   556 symmetry adapted basis functions of A   symmetry.
   556 basis functions,   862 primitive gaussians,   630 cartesian basis functions
    46 alpha electrons       46 beta electrons
       nuclear repulsion energy       753.7662980707 Hartrees.
 IExCor= 4235 DFT=T Ex+Corr=M06 ExCW=0 ScaHFX=  0.270000
 ScaDFX=  1.000000  1.000000  1.000000  1.000000 ScalE2=  1.000000  1.000000
 IRadAn=      5 IRanWt=     -1 IRanGd=            0 ICorTp=0 IEmpDi=  4
 NAtoms=   26 NActive=   26 NUniq=   26 SFac= 1.00D+00 NAtFMM=   60 NAOKFM=F Big=F
 Integral buffers will be    131072 words long.
 Raffenetti 2 integral format.
 Two-electron integral symmetry is turned on.
 Leave Link  301 at Thu Sep 26 15:23:25 2013, MaxMem=  8589934592 cpu:         1.7
 (Enter /system/software/linux-x86_64/gaussian/g09/D.01__pgi_12.10__atlas/l302.exe)
 NPDir=0 NMtPBC=     1 NCelOv=     1 NCel=       1 NClECP=     1 NCelD=      1
         NCelK=      1 NCelE2=     1 NClLst=     1 CellRange=     0.0.
 One-electron integrals computed using PRISM.
 NBasis=   556 RedAO= T EigKep=  1.54D-04  NBF=   556
 NBsUse=   556 1.00D-06 EigRej= -1.00D+00 NBFU=   556
 Precomputing XC quadrature grid using
 IXCGrd= 4 IRadAn=           5 IRanWt=          -1 IRanGd=           0 AccXCQ= 0.00D+00.
 Generated NRdTot=       0 NPtTot=           0 NUsed=           0 NTot=          32
 NSgBfM=   630   630   630   630   630 MxSgAt=    26 MxSgA2=    26.
 Leave Link  302 at Thu Sep 26 15:23:26 2013, MaxMem=  8589934592 cpu:        20.0
 (Enter /system/software/linux-x86_64/gaussian/g09/D.01__pgi_12.10__atlas/l303.exe)
 DipDrv:  MaxL=1.
 Leave Link  303 at Thu Sep 26 15:23:27 2013, MaxMem=  8589934592 cpu:         2.5
 (Enter /system/software/linux-x86_64/gaussian/g09/D.01__pgi_12.10__atlas/l401.exe)
 ExpMin= 1.03D-01 ExpMax= 1.53D+04 ExpMxC= 5.22D+02 IAcc=3 IRadAn=         5 AccDes= 0.00D+00
 Harris functional with IExCor= 1009 and IRadAn=       5 diagonalized for initial guess.
 HarFok:  IExCor= 1009 AccDes= 0.00D+00 IRadAn=         5 IDoV= 1 UseB2=F ITyADJ=14
 ICtDFT=  3500011 ScaDFX=  1.000000  1.000000  1.000000  1.000000
 FoFCou: FMM=F IPFlag=           0 FMFlag=      100000 FMFlg1=           0
         NFxFlg=           0 DoJE=T BraDBF=F KetDBF=T FulRan=T
         wScrn=  0.000000 ICntrl=     500 IOpCl=  0 I1Cent=   200000004 NGrid=           0
         NMat0=    1 NMatS0=      1 NMatT0=    0 NMatD0=    1 NMtDS0=    0 NMtDT0=    0
 Petite list used in FoFCou.
 Harris En= -572.926912654658    
 JPrj=0 DoOrth=F DoCkMO=F.
 Leave Link  401 at Thu Sep 26 15:23:32 2013, MaxMem=  8589934592 cpu:        77.5
 (Enter /system/software/linux-x86_64/gaussian/g09/D.01__pgi_12.10__atlas/l502.exe)
 Closed shell SCF:
 Using DIIS extrapolation, IDIIS=  1040.
 Integral symmetry usage will be decided dynamically.
 IVT=     1223922 IEndB=     1223922 NGot=  8589934592 MDV=  8589124841
 LenX=  8589124841 LenY=  8588727311
 Requested convergence on RMS density matrix=1.00D-08 within 128 cycles.
 Requested convergence on MAX density matrix=1.00D-06.
 Requested convergence on             energy=1.00D-06.
 No special actions if energy rises.
 Fock matrices will be formed incrementally for  20 cycles.
 Integral accuracy reduced to 1.0D-05 until final iterations.

 Cycle   1  Pass 0  IDiag  1:
 FoFJK:  IHMeth= 1 ICntrl=       0 DoSepK=F KAlg= 0 I1Cent=   0 FoldK=F
 IRaf= 880000000 NMat=   1 IRICut=       1 DoRegI=T DoRafI=F ISym2E= 0.
 FoFCou: FMM=F IPFlag=           0 FMFlag=      100000 FMFlg1=           0
         NFxFlg=           0 DoJE=F BraDBF=F KetDBF=F FulRan=T
         wScrn=  0.000000 ICntrl=       0 IOpCl=  0 I1Cent=           0 NGrid=           0
         NMat0=    1 NMatS0=      1 NMatT0=    0 NMatD0=    1 NMtDS0=    0 NMtDT0=    0
 Symmetry not used in FoFCou.
 E= -572.657099484758    
 DIIS: error= 1.55D-02 at cycle   1 NSaved=   1.
 NSaved= 1 IEnMin= 1 EnMin= -572.657099484758     IErMin= 1 ErrMin= 1.55D-02
 ErrMax= 1.55D-02  0.00D+00 EMaxC= 1.00D-01 BMatC= 4.09D-01 BMatP= 4.09D-01
 IDIUse=3 WtCom= 8.45D-01 WtEn= 1.55D-01
 Coeff-Com:  0.100D+01
 Coeff-En:   0.100D+01
 Coeff:      0.100D+01
 Gap=     0.208 Goal=   None    Shift=    0.000
 GapD=    0.208 DampG=1.000 DampE=0.500 DampFc=0.5000 IDamp=-1.
 Damping current iteration by 5.00D-01
 RMSDP=2.36D-03 MaxDP=2.03D-01              OVMax= 2.50D-01

 Cycle   2  Pass 0  IDiag  1:
 RMSU=  1.18D-03    CP:  9.99D-01
 E= -572.744646793181     Delta-E=       -0.087547308423 Rises=F Damp=T
 DIIS: error= 7.74D-03 at cycle   2 NSaved=   2.
 NSaved= 2 IEnMin= 2 EnMin= -572.744646793181     IErMin= 2 ErrMin= 7.74D-03
 ErrMax= 7.74D-03  0.00D+00 EMaxC= 1.00D-01 BMatC= 7.13D-02 BMatP= 4.09D-01
 IDIUse=3 WtCom= 9.23D-01 WtEn= 7.74D-02
 Coeff-Com:  0.236D+00 0.764D+00
 Coeff-En:   0.358D+00 0.642D+00
 Coeff:      0.246D+00 0.754D+00
 Gap=     0.252 Goal=   None    Shift=    0.000
 RMSDP=7.26D-04 MaxDP=4.02D-02 DE=-8.75D-02 OVMax= 1.74D-01

 Cycle   3  Pass 0  IDiag  1:
 RMSU=  6.68D-04    CP:  1.00D+00  7.61D-01
 E= -572.949459162961     Delta-E=       -0.204812369780 Rises=F Damp=F
 DIIS: error= 9.18D-03 at cycle   3 NSaved=   3.
 NSaved= 3 IEnMin= 3 EnMin= -572.949459162961     IErMin= 2 ErrMin= 7.74D-03
 ErrMax= 9.18D-03  0.00D+00 EMaxC= 1.00D-01 BMatC= 6.24D-02 BMatP= 7.13D-02
 IDIUse=3 WtCom= 9.08D-01 WtEn= 9.18D-02
 Coeff-Com:  0.760D-01 0.479D+00 0.445D+00
 Coeff-En:   0.000D+00 0.000D+00 0.100D+01
 Coeff:      0.690D-01 0.435D+00 0.496D+00
 Gap=     0.233 Goal=   None    Shift=    0.000
 RMSDP=4.05D-04 MaxDP=1.87D-02 DE=-2.05D-01 OVMax= 6.61D-02

 Cycle   4  Pass 0  IDiag  1:
 RMSU=  3.67D-04    CP:  1.00D+00  8.27D-01  7.72D-01
 E= -572.994904022859     Delta-E=       -0.045444859898 Rises=F Damp=F
 DIIS: error= 2.57D-03 at cycle   4 NSaved=   4.
 NSaved= 4 IEnMin= 4 EnMin= -572.994904022859     IErMin= 4 ErrMin= 2.57D-03
 ErrMax= 2.57D-03  0.00D+00 EMaxC= 1.00D-01 BMatC= 7.58D-03 BMatP= 6.24D-02
 IDIUse=3 WtCom= 9.74D-01 WtEn= 2.57D-02
 Coeff-Com:  0.149D-01 0.106D+00 0.277D+00 0.602D+00
 Coeff-En:   0.000D+00 0.000D+00 0.111D+00 0.889D+00
 Coeff:      0.145D-01 0.103D+00 0.273D+00 0.609D+00
 Gap=     0.227 Goal=   None    Shift=    0.000
 RMSDP=1.12D-04 MaxDP=5.00D-03 DE=-4.54D-02 OVMax= 1.81D-02

 Cycle   5  Pass 0  IDiag  1:
 RMSU=  6.11D-05    CP:  1.00D+00  8.03D-01  8.43D-01  7.94D-01
 E= -573.000567445993     Delta-E=       -0.005663423135 Rises=F Damp=F
 DIIS: error= 6.17D-04 at cycle   5 NSaved=   5.
 NSaved= 5 IEnMin= 5 EnMin= -573.000567445993     IErMin= 5 ErrMin= 6.17D-04
 ErrMax= 6.17D-04  0.00D+00 EMaxC= 1.00D-01 BMatC= 3.34D-04 BMatP= 7.58D-03
 IDIUse=3 WtCom= 9.94D-01 WtEn= 6.17D-03
 Coeff-Com:  0.144D-02 0.108D-01 0.901D-01 0.287D+00 0.611D+00
 Coeff-En:   0.000D+00 0.000D+00 0.000D+00 0.000D+00 0.100D+01
 Coeff:      0.143D-02 0.108D-01 0.896D-01 0.285D+00 0.613D+00
 Gap=     0.226 Goal=   None    Shift=    0.000
 RMSDP=3.22D-05 MaxDP=1.58D-03 DE=-5.66D-03 OVMax= 5.43D-03

 Cycle   6  Pass 0  IDiag  1:
 RMSU=  2.27D-05    CP:  1.00D+00  8.10D-01  8.42D-01  8.21D-01  6.98D-01
 E= -573.000829706078     Delta-E=       -0.000262260085 Rises=F Damp=F
 DIIS: error= 1.73D-04 at cycle   6 NSaved=   6.
 NSaved= 6 IEnMin= 6 EnMin= -573.000829706078     IErMin= 6 ErrMin= 1.73D-04
 ErrMax= 1.73D-04  0.00D+00 EMaxC= 1.00D-01 BMatC= 4.26D-05 BMatP= 3.34D-04
 IDIUse=3 WtCom= 9.98D-01 WtEn= 1.73D-03
 Coeff-Com: -0.361D-03-0.470D-02 0.189D-01 0.816D-01 0.321D+00 0.584D+00
 Coeff-En:   0.000D+00 0.000D+00 0.000D+00 0.000D+00 0.502D-01 0.950D+00
 Coeff:     -0.360D-03-0.469D-02 0.189D-01 0.815D-01 0.320D+00 0.585D+00
 Gap=     0.225 Goal=   None    Shift=    0.000
 RMSDP=1.02D-05 MaxDP=6.99D-04 DE=-2.62D-04 OVMax= 1.79D-03

 Cycle   7  Pass 0  IDiag  1:
 RMSU=  7.81D-06    CP:  1.00D+00  8.10D-01  8.48D-01  8.22D-01  7.63D-01
                    CP:  8.44D-01
 E= -573.000862973020     Delta-E=       -0.000033266942 Rises=F Damp=F
 DIIS: error= 5.26D-05 at cycle   7 NSaved=   7.
 NSaved= 7 IEnMin= 7 EnMin= -573.000862973020     IErMin= 7 ErrMin= 5.26D-05
 ErrMax= 5.26D-05  0.00D+00 EMaxC= 1.00D-01 BMatC= 4.45D-06 BMatP= 4.26D-05
 IDIUse=1 WtCom= 1.00D+00 WtEn= 0.00D+00
 Coeff-Com: -0.696D-04-0.303D-02 0.341D-02 0.198D-01 0.126D+00 0.313D+00
 Coeff-Com:  0.541D+00
 Coeff:     -0.696D-04-0.303D-02 0.341D-02 0.198D-01 0.126D+00 0.313D+00
 Coeff:      0.541D+00
 Gap=     0.225 Goal=   None    Shift=    0.000
 RMSDP=4.01D-06 MaxDP=2.08D-04 DE=-3.33D-05 OVMax= 5.46D-04

 Initial convergence to 1.0D-05 achieved.  Increase integral accuracy.
 Cycle   8  Pass 1  IDiag  1:
 E= -573.000903971805     Delta-E=       -0.000040998786 Rises=F Damp=F
 DIIS: error= 6.41D-05 at cycle   1 NSaved=   1.
 NSaved= 1 IEnMin= 1 EnMin= -573.000903971805     IErMin= 1 ErrMin= 6.41D-05
 ErrMax= 6.41D-05  0.00D+00 EMaxC= 1.00D-01 BMatC= 4.25D-06 BMatP= 4.25D-06
 IDIUse=1 WtCom= 1.00D+00 WtEn= 0.00D+00
 Coeff-Com:  0.100D+01
 Coeff:      0.100D+01
 Gap=     0.225 Goal=   None    Shift=    0.000
 RMSDP=4.01D-06 MaxDP=2.08D-04 DE=-4.10D-05 OVMax= 5.22D-04

 Cycle   9  Pass 1  IDiag  1:
 RMSU=  2.19D-05    CP:  1.00D+00
 E= -573.000903170146     Delta-E=        0.000000801660 Rises=F Damp=F
 DIIS: error= 4.85D-05 at cycle   2 NSaved=   2.
 NSaved= 2 IEnMin= 1 EnMin= -573.000903971805     IErMin= 2 ErrMin= 4.85D-05
 ErrMax= 4.85D-05  0.00D+00 EMaxC= 1.00D-01 BMatC= 4.15D-06 BMatP= 4.25D-06
 IDIUse=1 WtCom= 1.00D+00 WtEn= 0.00D+00
 Coeff-Com:  0.496D+00 0.504D+00
 Coeff:      0.496D+00 0.504D+00
 Gap=     0.225 Goal=   None    Shift=    0.000
 RMSDP=3.89D-06 MaxDP=1.89D-04 DE= 8.02D-07 OVMax= 6.16D-04

 Cycle  10  Pass 1  IDiag  1:
 RMSU=  3.89D-06    CP:  1.00D+00  9.94D-01
 E= -573.000905098588     Delta-E=       -0.000001928442 Rises=F Damp=F
 DIIS: error= 3.23D-05 at cycle   3 NSaved=   3.
 NSaved= 3 IEnMin= 3 EnMin= -573.000905098588     IErMin= 3 ErrMin= 3.23D-05
 ErrMax= 3.23D-05  0.00D+00 EMaxC= 1.00D-01 BMatC= 1.68D-06 BMatP= 4.15D-06
 IDIUse=1 WtCom= 1.00D+00 WtEn= 0.00D+00
 Coeff-Com:  0.119D-01 0.387D+00 0.602D+00
 Coeff:      0.119D-01 0.387D+00 0.602D+00
 Gap=     0.225 Goal=   None    Shift=    0.000
 RMSDP=1.48D-06 MaxDP=8.62D-05 DE=-1.93D-06 OVMax= 2.54D-04

 Cycle  11  Pass 1  IDiag  1:
 RMSU=  5.66D-07    CP:  1.00D+00  1.01D+00  6.59D-01
 E= -573.000906317277     Delta-E=       -0.000001218689 Rises=F Damp=F
 DIIS: error= 4.92D-06 at cycle   4 NSaved=   4.
 NSaved= 4 IEnMin= 4 EnMin= -573.000906317277     IErMin= 4 ErrMin= 4.92D-06
 ErrMax= 4.92D-06  0.00D+00 EMaxC= 1.00D-01 BMatC= 3.65D-08 BMatP= 1.68D-06
 IDIUse=1 WtCom= 1.00D+00 WtEn= 0.00D+00
 Coeff-Com: -0.365D-02 0.208D+00 0.337D+00 0.459D+00
 Coeff:     -0.365D-02 0.208D+00 0.337D+00 0.459D+00
 Gap=     0.225 Goal=   None    Shift=    0.000
 RMSDP=2.54D-07 MaxDP=1.34D-05 DE=-1.22D-06 OVMax= 2.66D-05

 Cycle  12  Pass 1  IDiag  1:
 RMSU=  1.80D-07    CP:  1.00D+00  1.01D+00  6.57D-01  6.88D-01
 E= -573.000906345933     Delta-E=       -0.000000028656 Rises=F Damp=F
 DIIS: error= 8.23D-07 at cycle   5 NSaved=   5.
 NSaved= 5 IEnMin= 5 EnMin= -573.000906345933     IErMin= 5 ErrMin= 8.23D-07
 ErrMax= 8.23D-07  0.00D+00 EMaxC= 1.00D-01 BMatC= 8.37D-10 BMatP= 3.65D-08
 IDIUse=1 WtCom= 1.00D+00 WtEn= 0.00D+00
 Coeff-Com: -0.217D-02 0.704D-01 0.114D+00 0.201D+00 0.617D+00
 Coeff:     -0.217D-02 0.704D-01 0.114D+00 0.201D+00 0.617D+00
 Gap=     0.225 Goal=   None    Shift=    0.000
 RMSDP=5.13D-08 MaxDP=2.13D-06 DE=-2.87D-08 OVMax= 6.46D-06

 Cycle  13  Pass 1  IDiag  1:
 RMSU=  4.59D-08    CP:  1.00D+00  1.01D+00  6.61D-01  7.20D-01  9.64D-01
 E= -573.000906346555     Delta-E=       -0.000000000622 Rises=F Damp=F
 DIIS: error= 3.58D-07 at cycle   6 NSaved=   6.
 NSaved= 6 IEnMin= 6 EnMin= -573.000906346555     IErMin= 6 ErrMin= 3.58D-07
 ErrMax= 3.58D-07  0.00D+00 EMaxC= 1.00D-01 BMatC= 1.31D-10 BMatP= 8.37D-10
 IDIUse=1 WtCom= 1.00D+00 WtEn= 0.00D+00
 Coeff-Com: -0.594D-03 0.745D-02 0.119D-01 0.389D-01 0.310D+00 0.632D+00
 Coeff:     -0.594D-03 0.745D-02 0.119D-01 0.389D-01 0.310D+00 0.632D+00
 Gap=     0.225 Goal=   None    Shift=    0.000
 RMSDP=2.02D-08 MaxDP=1.13D-06 DE=-6.22D-10 OVMax= 2.46D-06

 Cycle  14  Pass 1  IDiag  1:
 RMSU=  1.49D-08    CP:  1.00D+00  1.01D+00  6.61D-01  7.33D-01  1.01D+00
                    CP:  8.55D-01
 E= -573.000906346579     Delta-E=       -0.000000000024 Rises=F Damp=F
 DIIS: error= 1.33D-07 at cycle   7 NSaved=   7.
 NSaved= 7 IEnMin= 7 EnMin= -573.000906346579     IErMin= 7 ErrMin= 1.33D-07
 ErrMax= 1.33D-07  0.00D+00 EMaxC= 1.00D-01 BMatC= 1.84D-11 BMatP= 1.31D-10
 IDIUse=1 WtCom= 1.00D+00 WtEn= 0.00D+00
 Coeff-Com: -0.559D-04-0.433D-02-0.712D-02-0.254D-02 0.947D-01 0.335D+00
 Coeff-Com:  0.584D+00
 Coeff:     -0.559D-04-0.433D-02-0.712D-02-0.254D-02 0.947D-01 0.335D+00
 Coeff:      0.584D+00
 Gap=     0.225 Goal=   None    Shift=    0.000
 RMSDP=8.55D-09 MaxDP=4.72D-07 DE=-2.43D-11 OVMax= 9.17D-07

 SCF Done:  E(RM06) =  -573.000906347     A.U. after   14 cycles
            NFock= 14  Conv=0.85D-08     -V/T= 2.0078
 KE= 5.685643236971D+02 PE=-2.842988470415D+03 EE= 9.476569423003D+02
 Leave Link  502 at Thu Sep 26 15:29:38 2013, MaxMem=  8589934592 cpu:      5820.8
 (Enter /system/software/linux-x86_64/gaussian/g09/D.01__pgi_12.10__atlas/l601.exe)
 Copying SCF densities to generalized density rwf, IOpCl= 0 IROHF=0.

 **********************************************************************

            Population analysis using the SCF density.

 **********************************************************************

 Orbital symmetries:
       Occupied  (A) (A) (A) (A) (A) (A) (A) (A) (A) (A) (A) (A)
                 (A) (A) (A) (A) (A) (A) (A) (A) (A) (A) (A) (A)
                 (A) (A) (A) (A) (A) (A) (A) (A) (A) (A) (A) (A)
                 (A) (A) (A) (A) (A) (A) (A) (A) (A) (A)
       Virtual   (A) (A) (A) (A) (A) (A) (A) (A) (A) (A) (A) (A)
                 (A) (A) (A) (A) (A) (A) (A) (A) (A) (A) (A) (A)
                 (A) (A) (A) (A) (A) (A) (A) (A) (A) (A) (A) (A)
                 (A) (A) (A) (A) (A) (A) (A) (A) (A) (A) (A) (A)
                 (A) (A) (A) (A) (A) (A) (A) (A) (A) (A) (A) (A)
                 (A) (A) (A) (A) (A) (A) (A) (A) (A) (A) (A) (A)
                 (A) (A) (A) (A) (A) (A) (A) (A) (A) (A) (A) (A)
                 (A) (A) (A) (A) (A) (A) (A) (A) (A) (A) (A) (A)
                 (A) (A) (A) (A) (A) (A) (A) (A) (A) (A) (A) (A)
                 (A) (A) (A) (A) (A) (A) (A) (A) (A) (A) (A) (A)
                 (A) (A) (A) (A) (A) (A) (A) (A) (A) (A) (A) (A)
                 (A) (A) (A) (A) (A) (A) (A) (A) (A) (A) (A) (A)
                 (A) (A) (A) (A) (A) (A) (A) (A) (A) (A) (A) (A)
                 (A) (A) (A) (A) (A) (A) (A) (A) (A) (A) (A) (A)
                 (A) (A) (A) (A) (A) (A) (A) (A) (A) (A) (A) (A)
                 (A) (A) (A) (A) (A) (A) (A) (A) (A) (A) (A) (A)
                 (A) (A) (A) (A) (A) (A) (A) (A) (A) (A) (A) (A)
                 (A) (A) (A) (A) (A) (A) (A) (A) (A) (A) (A) (A)
                 (A) (A) (A) (A) (A) (A) (A) (A) (A) (A) (A) (A)
                 (A) (A) (A) (A) (A) (A) (A) (A) (A) (A) (A) (A)
                 (A) (A) (A) (A) (A) (A) (A) (A) (A) (A) (A) (A)
                 (A) (A) (A) (A) (A) (A) (A) (A) (A) (A) (A) (A)
                 (A) (A) (A) (A) (A) (A) (A) (A) (A) (A) (A) (A)
                 (A) (A) (A) (A) (A) (A) (A) (A) (A) (A) (A) (A)
                 (A) (A) (A) (A) (A) (A) (A) (A) (A) (A) (A) (A)
                 (A) (A) (A) (A) (A) (A) (A) (A) (A) (A) (A) (A)
                 (A) (A) (A) (A) (A) (A) (A) (A) (A) (A) (A) (A)
                 (A) (A) (A) (A) (A) (A) (A) (A) (A) (A) (A) (A)
                 (A) (A) (A) (A) (A) (A) (A) (A) (A) (A) (A) (A)
                 (A) (A) (A) (A) (A) (A) (A) (A) (A) (A) (A) (A)
                 (A) (A) (A) (A) (A) (A) (A) (A) (A) (A) (A) (A)
                 (A) (A) (A) (A) (A) (A) (A) (A) (A) (A) (A) (A)
                 (A) (A) (A) (A) (A) (A) (A) (A) (A) (A) (A) (A)
                 (A) (A) (A) (A) (A) (A) (A) (A) (A) (A) (A) (A)
                 (A) (A) (A) (A) (A) (A) (A) (A) (A) (A) (A) (A)
                 (A) (A) (A) (A) (A) (A) (A) (A) (A) (A) (A) (A)
                 (A) (A) (A) (A) (A) (A) (A) (A) (A) (A) (A) (A)
                 (A) (A) (A) (A) (A) (A) (A) (A) (A) (A) (A) (A)
                 (A) (A) (A) (A) (A) (A) (A) (A) (A) (A) (A) (A)
                 (A) (A) (A) (A) (A) (A) (A) (A) (A) (A) (A) (A)
                 (A) (A) (A) (A) (A) (A) (A) (A) (A) (A) (A) (A)
                 (A) (A) (A) (A) (A) (A) (A) (A) (A) (A) (A) (A)
                 (A) (A) (A) (A) (A) (A)
 The electronic state is 1-A.
 Alpha  occ. eigenvalues --  -19.21543 -19.19467 -14.42658 -14.41371 -10.37112
 Alpha  occ. eigenvalues --  -10.36225 -10.30179 -10.27322 -10.26114 -10.25799
 Alpha  occ. eigenvalues --  -10.25399 -10.25098  -1.05992  -1.04260  -0.96062
 Alpha  occ. eigenvalues --   -0.92807  -0.81922  -0.78206  -0.75377  -0.70640
 Alpha  occ. eigenvalues --   -0.65227  -0.63383  -0.59486  -0.55652  -0.54673
 Alpha  occ. eigenvalues --   -0.52138  -0.49680  -0.48632  -0.46729  -0.46232
 Alpha  occ. eigenvalues --   -0.45604  -0.44646  -0.44091  -0.42258  -0.41282
 Alpha  occ. eigenvalues --   -0.41020  -0.39671  -0.39074  -0.38279  -0.37381
 Alpha  occ. eigenvalues --   -0.36917  -0.35890  -0.29650  -0.28485  -0.27430
 Alpha  occ. eigenvalues --   -0.26373
 Alpha virt. eigenvalues --   -0.03830  -0.00447   0.02217   0.03832   0.04232
 Alpha virt. eigenvalues --    0.05769   0.06908   0.07235   0.08530   0.09410
 Alpha virt. eigenvalues --    0.10007   0.10480   0.11283   0.11744   0.12798
 Alpha virt. eigenvalues --    0.13749   0.14065   0.14641   0.16648   0.17459
 Alpha virt. eigenvalues --    0.17937   0.19190   0.20045   0.20733   0.22286
 Alpha virt. eigenvalues --    0.24183   0.25121   0.25795   0.26559   0.26865
 Alpha virt. eigenvalues --    0.28356   0.28936   0.29818   0.31355   0.31651
 Alpha virt. eigenvalues --    0.33475   0.34061   0.35594   0.36309   0.37460
 Alpha virt. eigenvalues --    0.37871   0.38070   0.39387   0.39601   0.40324
 Alpha virt. eigenvalues --    0.40742   0.40878   0.41299   0.41908   0.42137
 Alpha virt. eigenvalues --    0.42254   0.42787   0.43496   0.44257   0.44506
 Alpha virt. eigenvalues --    0.45193   0.45735   0.46182   0.46570   0.47613
 Alpha virt. eigenvalues --    0.47949   0.49149   0.49954   0.50982   0.51804
 Alpha virt. eigenvalues --    0.52465   0.53674   0.55670   0.56278   0.57881
 Alpha virt. eigenvalues --    0.58490   0.59749   0.60216   0.61700   0.63359
 Alpha virt. eigenvalues --    0.65693   0.65950   0.68076   0.69356   0.69528
 Alpha virt. eigenvalues --    0.72186   0.72671   0.74643   0.75846   0.76972
 Alpha virt. eigenvalues --    0.78563   0.80022   0.80798   0.81081   0.81842
 Alpha virt. eigenvalues --    0.83207   0.84299   0.85573   0.86714   0.87299
 Alpha virt. eigenvalues --    0.88577   0.88783   0.90203   0.92305   0.92845
 Alpha virt. eigenvalues --    0.93583   0.93800   0.95867   0.96988   0.97569
 Alpha virt. eigenvalues --    0.97827   0.98565   1.00125   1.00819   1.01261
 Alpha virt. eigenvalues --    1.02486   1.03431   1.03850   1.04298   1.05353
 Alpha virt. eigenvalues --    1.05446   1.07304   1.08177   1.09614   1.10520
 Alpha virt. eigenvalues --    1.11734   1.13174   1.13606   1.14923   1.15103
 Alpha virt. eigenvalues --    1.16022   1.17082   1.18230   1.18625   1.19810
 Alpha virt. eigenvalues --    1.20263   1.21312   1.23142   1.23369   1.24151
 Alpha virt. eigenvalues --    1.24453   1.25065   1.25352   1.26773   1.27715
 Alpha virt. eigenvalues --    1.29178   1.29376   1.29799   1.31263   1.32276
 Alpha virt. eigenvalues --    1.33583   1.35208   1.36596   1.37515   1.38156
 Alpha virt. eigenvalues --    1.38192   1.40717   1.40833   1.42498   1.43822
 Alpha virt. eigenvalues --    1.45959   1.46885   1.48240   1.48493   1.51006
 Alpha virt. eigenvalues --    1.52498   1.53077   1.54381   1.55757   1.57396
 Alpha virt. eigenvalues --    1.58405   1.59604   1.60649   1.62761   1.65371
 Alpha virt. eigenvalues --    1.68185   1.69380   1.70799   1.71853   1.72843
 Alpha virt. eigenvalues --    1.77585   1.78676   1.81939   1.82309   1.82834
 Alpha virt. eigenvalues --    1.86547   1.88960   1.89965   1.92617   1.97461
 Alpha virt. eigenvalues --    2.00925   2.05797   2.09236   2.12353   2.15256
 Alpha virt. eigenvalues --    2.17049   2.17210   2.20637   2.21474   2.23817
 Alpha virt. eigenvalues --    2.25520   2.27518   2.29296   2.31438   2.32115
 Alpha virt. eigenvalues --    2.35958   2.37061   2.38106   2.39270   2.41064
 Alpha virt. eigenvalues --    2.43553   2.44655   2.44841   2.47169   2.48549
 Alpha virt. eigenvalues --    2.49248   2.50466   2.51083   2.51901   2.52895
 Alpha virt. eigenvalues --    2.53797   2.54614   2.58138   2.59181   2.60231
 Alpha virt. eigenvalues --    2.61768   2.62662   2.64411   2.65913   2.65927
 Alpha virt. eigenvalues --    2.66647   2.67783   2.68946   2.70300   2.71412
 Alpha virt. eigenvalues --    2.71880   2.72566   2.73253   2.75945   2.77128
 Alpha virt. eigenvalues --    2.78319   2.78682   2.79101   2.80946   2.82002
 Alpha virt. eigenvalues --    2.82190   2.84255   2.85904   2.87364   2.88663
 Alpha virt. eigenvalues --    2.89402   2.90974   2.92352   2.92733   2.94307
 Alpha virt. eigenvalues --    2.94919   2.95562   2.97008   2.97226   2.98144
 Alpha virt. eigenvalues --    2.98509   2.99722   3.00941   3.01752   3.02764
 Alpha virt. eigenvalues --    3.03744   3.04599   3.04946   3.06745   3.07221
 Alpha virt. eigenvalues --    3.07801   3.09165   3.10341   3.11232   3.12798
 Alpha virt. eigenvalues --    3.13230   3.13274   3.15534   3.16286   3.17284
 Alpha virt. eigenvalues --    3.17591   3.18622   3.20342   3.21089   3.22101
 Alpha virt. eigenvalues --    3.22744   3.24170   3.25000   3.26256   3.27526
 Alpha virt. eigenvalues --    3.28334   3.29194   3.30939   3.32203   3.33242
 Alpha virt. eigenvalues --    3.33769   3.35410   3.35828   3.36759   3.37608
 Alpha virt. eigenvalues --    3.39475   3.40348   3.41748   3.42418   3.44301
 Alpha virt. eigenvalues --    3.44612   3.44710   3.45838   3.47044   3.48435
 Alpha virt. eigenvalues --    3.48826   3.50661   3.52103   3.53454   3.54301
 Alpha virt. eigenvalues --    3.57028   3.57537   3.58627   3.59464   3.60155
 Alpha virt. eigenvalues --    3.61053   3.62448   3.63355   3.65393   3.67193
 Alpha virt. eigenvalues --    3.68876   3.69639   3.70274   3.71277   3.73084
 Alpha virt. eigenvalues --    3.73685   3.74953   3.76204   3.77271   3.78334
 Alpha virt. eigenvalues --    3.79363   3.80292   3.80694   3.83056   3.83438
 Alpha virt. eigenvalues --    3.83764   3.84807   3.87163   3.87732   3.88056
 Alpha virt. eigenvalues --    3.89439   3.90073   3.90820   3.91428   3.92791
 Alpha virt. eigenvalues --    3.94297   3.95129   3.96738   3.98591   3.99422
 Alpha virt. eigenvalues --    4.01040   4.02896   4.04125   4.05871   4.07084
 Alpha virt. eigenvalues --    4.08251   4.09680   4.10184   4.11186   4.11751
 Alpha virt. eigenvalues --    4.12906   4.14114   4.14519   4.16054   4.16868
 Alpha virt. eigenvalues --    4.19134   4.19414   4.20542   4.20822   4.22594
 Alpha virt. eigenvalues --    4.22762   4.25637   4.26728   4.27177   4.28879
 Alpha virt. eigenvalues --    4.30004   4.31150   4.32002   4.33664   4.35140
 Alpha virt. eigenvalues --    4.35947   4.37644   4.39749   4.41331   4.42499
 Alpha virt. eigenvalues --    4.44982   4.46134   4.48016   4.50102   4.51165
 Alpha virt. eigenvalues --    4.54255   4.54690   4.57506   4.58934   4.61289
 Alpha virt. eigenvalues --    4.63235   4.66989   4.68324   4.69098   4.71048
 Alpha virt. eigenvalues --    4.72425   4.74942   4.76459   4.77146   4.78190
 Alpha virt. eigenvalues --    4.80427   4.80591   4.81553   4.82585   4.84516
 Alpha virt. eigenvalues --    4.85117   4.86361   4.87510   4.88934   4.92963
 Alpha virt. eigenvalues --    4.93457   4.94836   4.97444   4.98623   4.99822
 Alpha virt. eigenvalues --    5.01106   5.01692   5.03450   5.04677   5.06272
 Alpha virt. eigenvalues --    5.07320   5.07807   5.08631   5.10053   5.11280
 Alpha virt. eigenvalues --    5.11729   5.12512   5.15050   5.16517   5.17506
 Alpha virt. eigenvalues --    5.18594   5.19524   5.19772   5.21643   5.22684
 Alpha virt. eigenvalues --    5.23512   5.24383   5.25254   5.28478   5.28894
 Alpha virt. eigenvalues --    5.29648   5.31380   5.32281   5.32709   5.35274
 Alpha virt. eigenvalues --    5.37479   5.38253   5.40136   5.42805   5.43687
 Alpha virt. eigenvalues --    5.44792   5.45399   5.46908   5.53827   5.54424
 Alpha virt. eigenvalues --    5.57953   5.61208   5.62231   5.63908   5.69140
 Alpha virt. eigenvalues --    5.70383   5.71799   5.75133   5.76488   5.76754
 Alpha virt. eigenvalues --    5.78241   5.79364   5.85700   5.87503   5.88179
 Alpha virt. eigenvalues --    5.92158   5.93214   5.95896   5.97098   6.02005
 Alpha virt. eigenvalues --    6.05312   6.09570   6.10043   6.19088   6.21956
 Alpha virt. eigenvalues --    6.43908   6.45807   6.50294   6.51338   6.54163
 Alpha virt. eigenvalues --    6.55881   6.57745   6.87739   6.88396   7.04493
 Alpha virt. eigenvalues --    7.04577   7.06772   7.08155   9.03478   9.13915
 Alpha virt. eigenvalues --   10.87901  11.64394  12.03659  12.16748  12.36100
 Alpha virt. eigenvalues --   12.66608  13.08494  13.32958  13.68889  13.76497
          Condensed to atoms (all electrons):
               1          2          3          4          5          6
     1  C    5.242240   0.247995  -0.079742   0.208584   0.406368   0.431814
     2  C    0.247995   5.176481   0.260749  -0.087317  -0.020076  -0.031909
     3  C   -0.079742   0.260749   5.048473  -0.059983   0.006231  -0.007484
     4  C    0.208584  -0.087317  -0.059983   5.565826  -0.037212  -0.038566
     5  H    0.406368  -0.020076   0.006231  -0.037212   0.517855  -0.022772
     6  H    0.431814  -0.031909  -0.007484  -0.038566  -0.022772   0.479507
     7  H   -0.034704   0.418543  -0.024276  -0.002528  -0.001600   0.002988
     8  H   -0.035434   0.423218  -0.031302   0.010135  -0.002126  -0.002514
     9  H   -0.009375  -0.058425   0.434001   0.002828   0.000303  -0.000048
    10  H    0.008201  -0.026307   0.409424   0.001174  -0.000134   0.000507
    11  H   -0.016674  -0.014924   0.001762   0.400715  -0.000777   0.005668
    12  C   -0.048567   0.003948   0.003531   0.199803  -0.003237   0.000673
    13  N   -0.032876  -0.016433   0.237654   0.189603   0.005792  -0.005117
    14  O   -0.000447  -0.000629   0.000618  -0.086076   0.000405   0.003794
    15  N   -0.000622  -0.000167   0.000004  -0.082062   0.005550   0.000689
    16  H    0.000231   0.000015  -0.000015   0.003614  -0.000133  -0.000002
    17  C   -0.000412   0.000043   0.000008   0.007272  -0.000110  -0.000115
    18  H   -0.000024   0.000018  -0.000006   0.002592   0.000120  -0.000101
    19  H   -0.000005  -0.000001   0.000000   0.000070  -0.000020   0.000001
    20  H    0.000124  -0.000027   0.000010  -0.000999  -0.000319   0.000214
    21  C   -0.004562   0.004238  -0.031901  -0.063699   0.000405  -0.000243
    22  C    0.003067  -0.000674   0.005545  -0.015141  -0.000021  -0.000118
    23  H   -0.000200   0.000012  -0.000078  -0.001480  -0.000005   0.000001
    24  H    0.000030   0.000022  -0.000176  -0.000614  -0.000016   0.000001
    25  H    0.003300  -0.000269  -0.000739   0.007728   0.000126  -0.000044
    26  O   -0.000008  -0.000184  -0.007390   0.003417   0.000018   0.000012
               7          8          9         10         11         12
     1  C   -0.034704  -0.035434  -0.009375   0.008201  -0.016674  -0.048567
     2  C    0.418543   0.423218  -0.058425  -0.026307  -0.014924   0.003948
     3  C   -0.024276  -0.031302   0.434001   0.409424   0.001762   0.003531
     4  C   -0.002528   0.010135   0.002828   0.001174   0.400715   0.199803
     5  H   -0.001600  -0.002126   0.000303  -0.000134  -0.000777  -0.003237
     6  H    0.002988  -0.002514  -0.000048   0.000507   0.005668   0.000673
     7  H    0.501648  -0.024742   0.004707  -0.003062   0.000904   0.001832
     8  H   -0.024742   0.533886  -0.001274  -0.001922  -0.000435  -0.000186
     9  H    0.004707  -0.001274   0.526078  -0.026943  -0.001098   0.001344
    10  H   -0.003062  -0.001922  -0.026943   0.491929   0.001654  -0.000692
    11  H    0.000904  -0.000435  -0.001098   0.001654   0.487839  -0.059149
    12  C    0.001832  -0.000186   0.001344  -0.000692  -0.059149   4.836005
    13  N   -0.007787   0.005023  -0.032443  -0.034175  -0.036633  -0.039827
    14  O   -0.000062   0.000008   0.000399   0.000033   0.004699   0.678637
    15  N   -0.000139   0.000004   0.000004   0.000015   0.018295   0.302245
    16  H    0.000004   0.000000  -0.000001  -0.000003  -0.002139  -0.008279
    17  C    0.000004  -0.000001  -0.000004   0.000000   0.000048  -0.055636
    18  H    0.000000   0.000000   0.000000   0.000000   0.000094  -0.013761
    19  H    0.000000   0.000000   0.000000   0.000000  -0.000076   0.006983
    20  H    0.000002  -0.000001   0.000000   0.000000  -0.000176  -0.000152
    21  C    0.002762   0.000174   0.004149  -0.006756  -0.007462  -0.000030
    22  C    0.000053   0.000001  -0.000429   0.002582  -0.011954  -0.008419
    23  H    0.000014   0.000001   0.000027  -0.000063   0.000748   0.002884
    24  H    0.000040  -0.000007   0.000006  -0.000063   0.001105   0.000562
    25  H   -0.000399   0.000013  -0.000001  -0.000351  -0.011537  -0.012773
    26  O    0.000910  -0.000105  -0.000367   0.024235   0.001430  -0.000440
              13         14         15         16         17         18
     1  C   -0.032876  -0.000447  -0.000622   0.000231  -0.000412  -0.000024
     2  C   -0.016433  -0.000629  -0.000167   0.000015   0.000043   0.000018
     3  C    0.237654   0.000618   0.000004  -0.000015   0.000008  -0.000006
     4  C    0.189603  -0.086076  -0.082062   0.003614   0.007272   0.002592
     5  H    0.005792   0.000405   0.005550  -0.000133  -0.000110   0.000120
     6  H   -0.005117   0.003794   0.000689  -0.000002  -0.000115  -0.000101
     7  H   -0.007787  -0.000062  -0.000139   0.000004   0.000004   0.000000
     8  H    0.005023   0.000008   0.000004   0.000000  -0.000001   0.000000
     9  H   -0.032443   0.000399   0.000004  -0.000001  -0.000004   0.000000
    10  H   -0.034175   0.000033   0.000015  -0.000003   0.000000   0.000000
    11  H   -0.036633   0.004699   0.018295  -0.002139   0.000048   0.000094
    12  C   -0.039827   0.678637   0.302245  -0.008279  -0.055636  -0.013761
    13  N    6.832591  -0.004227   0.001978  -0.000118  -0.000031   0.000070
    14  O   -0.004227   7.817451  -0.109020   0.000935  -0.011559   0.017980
    15  N    0.001978  -0.109020   6.563500   0.377148   0.269605  -0.057522
    16  H   -0.000118   0.000935   0.377148   0.541596  -0.026584  -0.006545
    17  C   -0.000031  -0.011559   0.269605  -0.026584   4.803856   0.406585
    18  H    0.000070   0.017980  -0.057522  -0.006545   0.406585   0.612932
    19  H    0.000006   0.001271  -0.023878  -0.005253   0.400274  -0.033245
    20  H   -0.000084  -0.001305  -0.032404   0.006571   0.400790  -0.048810
    21  C    0.309273   0.004250   0.001143  -0.000397  -0.000021   0.000030
    22  C   -0.066998  -0.000365  -0.003929  -0.000249   0.000067  -0.000111
    23  H    0.000914   0.000585  -0.000092  -0.000024   0.000020   0.000012
    24  H    0.004350   0.000053   0.000071   0.000133   0.000004  -0.000004
    25  H    0.003533  -0.000256   0.003412   0.000931  -0.000039   0.000125
    26  O   -0.104531  -0.000006  -0.000001   0.000001   0.000000   0.000000
              19         20         21         22         23         24
     1  C   -0.000005   0.000124  -0.004562   0.003067  -0.000200   0.000030
     2  C   -0.000001  -0.000027   0.004238  -0.000674   0.000012   0.000022
     3  C    0.000000   0.000010  -0.031901   0.005545  -0.000078  -0.000176
     4  C    0.000070  -0.000999  -0.063699  -0.015141  -0.001480  -0.000614
     5  H   -0.000020  -0.000319   0.000405  -0.000021  -0.000005  -0.000016
     6  H    0.000001   0.000214  -0.000243  -0.000118   0.000001   0.000001
     7  H    0.000000   0.000002   0.002762   0.000053   0.000014   0.000040
     8  H    0.000000  -0.000001   0.000174   0.000001   0.000001  -0.000007
     9  H    0.000000   0.000000   0.004149  -0.000429   0.000027   0.000006
    10  H    0.000000   0.000000  -0.006756   0.002582  -0.000063  -0.000063
    11  H   -0.000076  -0.000176  -0.007462  -0.011954   0.000748   0.001105
    12  C    0.006983  -0.000152  -0.000030  -0.008419   0.002884   0.000562
    13  N    0.000006  -0.000084   0.309273  -0.066998   0.000914   0.004350
    14  O    0.001271  -0.001305   0.004250  -0.000365   0.000585   0.000053
    15  N   -0.023878  -0.032404   0.001143  -0.003929  -0.000092   0.000071
    16  H   -0.005253   0.006571  -0.000397  -0.000249  -0.000024   0.000133
    17  C    0.400274   0.400790  -0.000021   0.000067   0.000020   0.000004
    18  H   -0.033245  -0.048810   0.000030  -0.000111   0.000012  -0.000004
    19  H    0.576856  -0.021096  -0.000002   0.000004  -0.000001   0.000000
    20  H   -0.021096   0.587506  -0.000015   0.000012   0.000001   0.000000
    21  C   -0.000002  -0.000015   4.611650   0.278163  -0.023989  -0.029174
    22  C    0.000004   0.000012   0.278163   5.096917   0.392510   0.399188
    23  H   -0.000001   0.000001  -0.023989   0.392510   0.521876  -0.008811
    24  H    0.000000   0.000000  -0.029174   0.399188  -0.008811   0.510464
    25  H    0.000027  -0.000061  -0.039903   0.366462  -0.038480  -0.020987
    26  O    0.000000   0.000000   0.684665  -0.075873  -0.000759   0.006815
              25         26
     1  C    0.003300  -0.000008
     2  C   -0.000269  -0.000184
     3  C   -0.000739  -0.007390
     4  C    0.007728   0.003417
     5  H    0.000126   0.000018
     6  H   -0.000044   0.000012
     7  H   -0.000399   0.000910
     8  H    0.000013  -0.000105
     9  H   -0.000001  -0.000367
    10  H   -0.000351   0.024235
    11  H   -0.011537   0.001430
    12  C   -0.012773  -0.000440
    13  N    0.003533  -0.104531
    14  O   -0.000256  -0.000006
    15  N    0.003412  -0.000001
    16  H    0.000931   0.000001
    17  C   -0.000039   0.000000
    18  H    0.000125   0.000000
    19  H    0.000027   0.000000
    20  H   -0.000061   0.000000
    21  C   -0.039903   0.684665
    22  C    0.366462  -0.075873
    23  H   -0.038480  -0.000759
    24  H   -0.020987   0.006815
    25  H    0.621579   0.004652
    26  O    0.004652   7.837916
 Mulliken charges:
               1
     1  C   -0.288303
     2  C   -0.277942
     3  C   -0.164917
     4  C   -0.127683
     5  H    0.145386
     6  H    0.183162
     7  H    0.164889
     8  H    0.127586
     9  H    0.156562
    10  H    0.160717
    11  H    0.238073
    12  C    0.212701
    13  N   -0.209509
    14  O   -0.317165
    15  N   -0.233829
    16  H    0.118563
    17  C   -0.194063
    18  H    0.119571
    19  H    0.098085
    20  H    0.110219
    21  C    0.307255
    22  C   -0.360289
    23  H    0.154378
    24  H    0.137007
    25  H    0.113952
    26  O   -0.374406
 Sum of Mulliken charges =   0.00000
 Mulliken charges with hydrogens summed into heavy atoms:
               1
     1  C    0.040245
     2  C    0.014534
     3  C    0.152362
     4  C    0.110390
    12  C    0.212701
    13  N   -0.209509
    14  O   -0.317165
    15  N   -0.115266
    17  C    0.133813
    21  C    0.307255
    22  C    0.045047
    26  O   -0.374406
 Electronic spatial extent (au):  <R**2>=           2233.2961
 Charge=              0.0000 electrons
 Dipole moment (field-independent basis, Debye):
    X=              2.5293    Y=              1.5657    Z=             -3.0623  Tot=              4.2693
 Quadrupole moment (field-independent basis, Debye-Ang):
   XX=            -77.2146   YY=            -66.1560   ZZ=            -77.1090
   XY=             -9.7872   XZ=             -1.5749   YZ=              3.3094
 Traceless Quadrupole moment (field-independent basis, Debye-Ang):
   XX=             -3.7214   YY=              7.3372   ZZ=             -3.6158
   XY=             -9.7872   XZ=             -1.5749   YZ=              3.3094
 Octapole moment (field-independent basis, Debye-Ang**2):
  XXX=             56.4571  YYY=             -4.1475  ZZZ=             -3.1927  XYY=             10.7769
  XXY=             20.9406  XXZ=             -4.7943  XZZ=            -10.3616  YZZ=             -3.0373
  YYZ=             -0.9912  XYZ=              1.8883
 Hexadecapole moment (field-independent basis, Debye-Ang**3):
 XXXX=          -1767.9569 YYYY=           -800.9536 ZZZZ=           -289.0815 XXXY=            -84.0193
 XXXZ=            -11.0917 YYYX=            -18.4578 YYYZ=              7.1161 ZZZX=             -0.6140
 ZZZY=              6.1569 XXYY=           -453.6802 XXZZ=           -355.3815 YYZZ=           -175.0158
 XXYZ=             17.0472 YYXZ=              1.6899 ZZXY=              0.1577
 N-N= 7.537662980707D+02 E-N=-2.842988495511D+03  KE= 5.685643236971D+02
 No NMR shielding tensors so no spin-rotation constants.
 Leave Link  601 at Thu Sep 26 15:29:39 2013, MaxMem=  8589934592 cpu:         9.8
 (Enter /system/software/linux-x86_64/gaussian/g09/D.01__pgi_12.10__atlas/l701.exe)
 Compute integral first derivatives.
 ... and contract with generalized density number  0.
 Leave Link  701 at Thu Sep 26 15:29:40 2013, MaxMem=  8589934592 cpu:        11.0
 (Enter /system/software/linux-x86_64/gaussian/g09/D.01__pgi_12.10__atlas/l702.exe)
 L702 exits ... SP integral derivatives will be done elsewhere.
 Leave Link  702 at Thu Sep 26 15:29:41 2013, MaxMem=  8589934592 cpu:         0.7
 (Enter /system/software/linux-x86_64/gaussian/g09/D.01__pgi_12.10__atlas/l703.exe)
 Compute integral first derivatives, UseDBF=F ICtDFT=           0.
 Integral derivatives from FoFJK, PRISM(SPDF).
 Calling FoFJK, ICntrl=      2127 FMM=F ISym2X=0 I1Cent= 0 IOpClX= 0 NMat=1 NMatS=1 NMatT=0.
 FoFJK:  IHMeth= 1 ICntrl=    2127 DoSepK=F KAlg= 0 I1Cent=   0 FoldK=F
 IRaf=         0 NMat=   1 IRICut=       1 DoRegI=T DoRafI=F ISym2E= 0.
 FoFCou: FMM=F IPFlag=           0 FMFlag=      100000 FMFlg1=         800
         NFxFlg=           0 DoJE=F BraDBF=F KetDBF=F FulRan=T
         wScrn=  0.000000 ICntrl=    2127 IOpCl=  0 I1Cent=           0 NGrid=           0
         NMat0=    1 NMatS0=      1 NMatT0=    0 NMatD0=    1 NMtDS0=    0 NMtDT0=    0
 Symmetry not used in FoFCou.
 Leave Link  703 at Thu Sep 26 15:30:57 2013, MaxMem=  8589934592 cpu:      1222.0
 (Enter /system/software/linux-x86_64/gaussian/g09/D.01__pgi_12.10__atlas/l716.exe)
 Dipole        = 9.95112991D-01 6.15991301D-01-1.20481880D+00
 ***** Axes restored to original set *****
 -------------------------------------------------------------------
 Center     Atomic                   Forces (Hartrees/Bohr)
 Number     Number              X              Y              Z
 -------------------------------------------------------------------
      1        6          -0.001726424    0.003013880   -0.024163993
      2        6           0.001385656    0.004070117    0.027672006
      3        6          -0.008737706    0.005757391   -0.012241260
      4        6          -0.014568388    0.005160371    0.033124958
      5        1          -0.011790448   -0.006506950   -0.005546367
      6        1           0.004732269    0.001027978    0.013721813
      7        1          -0.004788740    0.003332549   -0.013709537
      8        1           0.008530606   -0.010200224    0.003987913
      9        1           0.006763947    0.002548545    0.014365371
     10        1           0.005411380    0.010512306   -0.007175616
     11        1          -0.009501178   -0.006421445   -0.011374729
     12        6           0.005608364    0.047997783    0.061540143
     13        7          -0.027494878    0.010643312   -0.050542978
     14        8          -0.013421129   -0.048853779   -0.065941866
     15        7           0.037048456   -0.019392294    0.018513337
     16        1          -0.001011242    0.005523263   -0.012105437
     17        6           0.007302496    0.010254702   -0.015602125
     18        1          -0.002203362    0.009167521    0.012840192
     19        1          -0.011098966   -0.003401640   -0.004799297
     20        1           0.003275366   -0.008857174    0.006556602
     21        6           0.076360392    0.009661129   -0.014724102
     22        6           0.024902374   -0.016085403    0.015504309
     23        1          -0.002657508    0.010567063    0.007893528
     24        1           0.004545346    0.003357869   -0.009909307
     25        1          -0.012291495    0.001729335   -0.002958824
     26        8          -0.064575188   -0.024606204    0.035075266
 -------------------------------------------------------------------
 Cartesian Forces:  Max     0.076360392 RMS     0.022055150
 Leave Link  716 at Thu Sep 26 15:30:58 2013, MaxMem=  8589934592 cpu:         0.7
 (Enter /system/software/linux-x86_64/gaussian/g09/D.01__pgi_12.10__atlas/l103.exe)

 GradGradGradGradGradGradGradGradGradGradGradGradGradGradGradGradGradGrad
 Berny optimization.
 FormGI is forming the generalized inverse of G from B-inverse, IUseBI=4.
 Internal  Forces:  Max     0.082583778 RMS     0.013044694
 Search for a local minimum.
 Step number   1 out of a maximum of  149
 All quantities printed in internal units (Hartrees-Bohrs-Radians)
 RMS Force = .13045D-01 SwitMx=.10000D-02 MixMth= 1
 Mixed Optimization -- RFO/linear search
 Second derivative matrix not updated -- first step.
 ITU=  0
     Eigenvalues ---    0.00237   0.00237   0.00448   0.00448   0.00513
     Eigenvalues ---    0.00766   0.00766   0.00766   0.00859   0.02310
     Eigenvalues ---    0.02582   0.03399   0.04382   0.04512   0.04776
     Eigenvalues ---    0.04960   0.05574   0.05728   0.05935   0.05965
     Eigenvalues ---    0.06059   0.06680   0.07243   0.07243   0.07351
     Eigenvalues ---    0.07537   0.07537   0.08098   0.08811   0.09816
     Eigenvalues ---    0.11287   0.12277   0.15326   0.16000   0.16000
     Eigenvalues ---    0.16000   0.16000   0.16000   0.16000   0.17823
     Eigenvalues ---    0.19991   0.23464   0.25000   0.25000   0.25000
     Eigenvalues ---    0.25000   0.27274   0.27610   0.28519   0.28519
     Eigenvalues ---    0.28528   0.31434   0.32024   0.35740   0.35740
     Eigenvalues ---    0.35740   0.37230   0.37230   0.37230   0.37230
     Eigenvalues ---    0.37230   0.37230   0.37230   0.37230   0.37230
     Eigenvalues ---    0.37230   0.37230   0.37230   0.37230   0.47688
     Eigenvalues ---    0.80209   0.80209
 RFO step:  Lambda=-6.24498414D-02 EMin= 2.36824150D-03
 Linear search not attempted -- first point.
 Maximum step size (   0.300) exceeded in Quadratic search.
    -- Step size scaled by   0.862
 Iteration  1 RMS(Cart)=  0.15507030 RMS(Int)=  0.00724547
 Iteration  2 RMS(Cart)=  0.01151401 RMS(Int)=  0.00074437
 Iteration  3 RMS(Cart)=  0.00008175 RMS(Int)=  0.00074342
 Iteration  4 RMS(Cart)=  0.00000004 RMS(Int)=  0.00074342
 ITry= 1 IFail=0 DXMaxC= 6.85D-01 DCOld= 1.00D+10 DXMaxT= 3.00D-01 DXLimC= 3.00D+00 Rises=F
 Variable       Old X    -DE/DX   Delta X   Delta X   Delta X     New X
                                 (Linear)    (Quad)   (Total)
    R1        2.88981   0.00094   0.00000   0.00094   0.00029   2.89010
    R2        2.86669  -0.00262   0.00000   0.00034   0.00042   2.86711
    R3        2.02201   0.01374   0.00000   0.02724   0.02724   2.04925
    R4        2.02201   0.01427   0.00000   0.02830   0.02830   2.05031
    R5        2.86681  -0.00181   0.00000  -0.00035   0.00008   2.86689
    R6        2.02201   0.01480   0.00000   0.02935   0.02935   2.05136
    R7        2.02201   0.01340   0.00000   0.02658   0.02658   2.04859
    R8        2.02201   0.01449   0.00000   0.02873   0.02873   2.05074
    R9        2.02201   0.01151   0.00000   0.02282   0.02282   2.04482
   R10        2.83227  -0.00743   0.00000  -0.02176  -0.02158   2.81068
   R11        2.02201   0.01374   0.00000   0.02726   0.02726   2.04927
   R12        2.91018  -0.02117   0.00000  -0.05249  -0.05249   2.85769
   R13        2.83223   0.00667   0.00000   0.01134   0.01131   2.84354
   R14        2.37803  -0.08258   0.00000  -0.08236  -0.08236   2.29567
   R15        2.77790  -0.03208   0.00000  -0.06587  -0.06587   2.71203
   R16        2.77790  -0.03456   0.00000  -0.07097  -0.07097   2.70693
   R17        1.88973   0.01141   0.00000   0.01824   0.01824   1.90796
   R18        2.77790   0.00030   0.00000   0.00063   0.00063   2.77852
   R19        2.02201   0.01439   0.00000   0.02854   0.02854   2.05055
   R20        2.02201   0.01238   0.00000   0.02456   0.02456   2.04657
   R21        2.02201   0.01150   0.00000   0.02280   0.02280   2.04480
   R22        2.91018  -0.01609   0.00000  -0.03990  -0.03990   2.87028
   R23        2.37803  -0.07749   0.00000  -0.07728  -0.07728   2.30075
   R24        2.02201   0.01343   0.00000   0.02663   0.02663   2.04864
   R25        2.02201   0.01058   0.00000   0.02098   0.02098   2.04299
   R26        2.02201   0.00693   0.00000   0.01374   0.01374   2.03575
    A1        1.68737   0.00217   0.00000   0.02242   0.02217   1.70954
    A2        2.00372   0.00304   0.00000   0.02325   0.02355   2.02727
    A3        1.94546  -0.00363   0.00000  -0.02917  -0.02928   1.91617
    A4        1.98587  -0.00102   0.00000  -0.00646  -0.00686   1.97902
    A5        1.96326  -0.00319   0.00000  -0.02457  -0.02467   1.93859
    A6        1.87627   0.00221   0.00000   0.01230   0.01236   1.88863
    A7        1.68762  -0.00027   0.00000   0.01060   0.01045   1.69807
    A8        1.94524  -0.00051   0.00000  -0.01217  -0.01220   1.93304
    A9        2.00379   0.00007   0.00000   0.00298   0.00305   2.00685
   A10        1.96317  -0.00199   0.00000  -0.01461  -0.01472   1.94845
   A11        1.98582   0.00100   0.00000   0.00147   0.00161   1.98743
   A12        1.87631   0.00139   0.00000   0.00997   0.00997   1.88628
   A13        1.85215  -0.00315   0.00000   0.00376   0.00444   1.85659
   A14        2.01702   0.00766   0.00000   0.03369   0.03332   2.05033
   A15        1.81921   0.00465   0.00000   0.00951   0.00915   1.82836
   A16        1.89863   0.00020   0.00000  -0.00250  -0.00325   1.89538
   A17        1.89568  -0.00233   0.00000  -0.01779  -0.01790   1.87778
   A18        1.97405  -0.00723   0.00000  -0.02734  -0.02736   1.94669
   A19        1.85255  -0.00461   0.00000  -0.02033  -0.01964   1.83291
   A20        2.01727  -0.00198   0.00000  -0.02177  -0.02234   1.99493
   A21        1.81916   0.00057   0.00000   0.00148   0.00120   1.82035
   A22        1.89864   0.00214   0.00000   0.01096   0.01029   1.90892
   A23        1.89531   0.00216   0.00000   0.01825   0.01796   1.91326
   A24        1.97382   0.00151   0.00000   0.01132   0.01172   1.98554
   A25        2.09440   0.00913   0.00000   0.02518   0.02479   2.11918
   A26        2.09440  -0.02520   0.00000  -0.06953  -0.06993   2.02446
   A27        2.09440   0.01607   0.00000   0.04434   0.04392   2.13832
   A28        1.81090  -0.00172   0.00000   0.01172   0.01146   1.82236
   A29        2.03527  -0.01442   0.00000  -0.04999  -0.05515   1.98012
   A30        1.85248   0.02747   0.00000   0.14700   0.14903   2.00151
   A31        1.91063  -0.00378   0.00000  -0.00781  -0.00804   1.90260
   A32        1.91063   0.01210   0.00000   0.03688   0.03677   1.94740
   A33        1.91063  -0.00190   0.00000   0.00058   0.00049   1.91112
   A34        1.91063   0.01083   0.00000   0.04478   0.04475   1.95539
   A35        1.91063  -0.00367   0.00000  -0.01499  -0.01510   1.89554
   A36        1.91063  -0.00168   0.00000  -0.00853  -0.00865   1.90198
[...]
 Alpha virt. eigenvalues --    1.16729   1.17368   1.17757   1.19182   1.19692
 Alpha virt. eigenvalues --    1.20401   1.20958   1.21726   1.22296   1.22614
 Alpha virt. eigenvalues --    1.23628   1.24255   1.26060   1.26751   1.27626
 Alpha virt. eigenvalues --    1.28814   1.29317   1.30295   1.31004   1.32486
 Alpha virt. eigenvalues --    1.33072   1.34196   1.35032   1.35469   1.36137
 Alpha virt. eigenvalues --    1.37826   1.39111   1.40412   1.41342   1.42286
 Alpha virt. eigenvalues --    1.45035   1.45485   1.46082   1.48658   1.49762
 Alpha virt. eigenvalues --    1.50741   1.50880   1.51956   1.53201   1.55570
 Alpha virt. eigenvalues --    1.56241   1.57859   1.60233   1.62638   1.66872
 Alpha virt. eigenvalues --    1.67369   1.69476   1.72598   1.75245   1.77522
 Alpha virt. eigenvalues --    1.79374   1.81120   1.83961   1.86436   1.87948
 Alpha virt. eigenvalues --    1.88297   1.91181   1.94957   1.96784   2.01372
 Alpha virt. eigenvalues --    2.08801   2.10436   2.12576   2.12872   2.14617
 Alpha virt. eigenvalues --    2.19272   2.21725   2.24076   2.26538   2.27193
 Alpha virt. eigenvalues --    2.29053   2.29791   2.32543   2.33750   2.36857
 Alpha virt. eigenvalues --    2.37636   2.40146   2.40835   2.42303   2.43295
 Alpha virt. eigenvalues --    2.44447   2.46959   2.47939   2.49715   2.50747
 Alpha virt. eigenvalues --    2.52169   2.52705   2.53593   2.54387   2.54995
 Alpha virt. eigenvalues --    2.55483   2.57595   2.58471   2.59840   2.60287
 Alpha virt. eigenvalues --    2.61046   2.63279   2.64392   2.64991   2.66632
 Alpha virt. eigenvalues --    2.67719   2.69084   2.69426   2.70768   2.72100
 Alpha virt. eigenvalues --    2.73489   2.74765   2.75337   2.75741   2.77743
 Alpha virt. eigenvalues --    2.78911   2.79987   2.81066   2.81304   2.83979
 Alpha virt. eigenvalues --    2.85016   2.86052   2.87979   2.89015   2.90011
 Alpha virt. eigenvalues --    2.91331   2.92172   2.92698   2.93961   2.94654
 Alpha virt. eigenvalues --    2.95019   2.96534   2.97641   2.97981   2.98579
 Alpha virt. eigenvalues --    2.98830   2.99832   3.01513   3.02546   3.03779
 Alpha virt. eigenvalues --    3.04137   3.05876   3.07071   3.07702   3.08412
 Alpha virt. eigenvalues --    3.08765   3.10832   3.11110   3.12568   3.15107
 Alpha virt. eigenvalues --    3.15751   3.16249   3.17706   3.19326   3.20614
 Alpha virt. eigenvalues --    3.20933   3.22147   3.22897   3.24308   3.24989
 Alpha virt. eigenvalues --    3.25116   3.26264   3.27808   3.29366   3.29613
 Alpha virt. eigenvalues --    3.30030   3.31931   3.32245   3.32549   3.34433
 Alpha virt. eigenvalues --    3.35386   3.35712   3.37589   3.38069   3.38739
 Alpha virt. eigenvalues --    3.40678   3.41810   3.42079   3.42767   3.44547
 Alpha virt. eigenvalues --    3.45067   3.46197   3.46722   3.48895   3.49896
 Alpha virt. eigenvalues --    3.51306   3.52430   3.53414   3.53950   3.54998
 Alpha virt. eigenvalues --    3.55963   3.57139   3.58531   3.59172   3.60587
 Alpha virt. eigenvalues --    3.61867   3.62981   3.63770   3.66166   3.67889
 Alpha virt. eigenvalues --    3.69164   3.70173   3.70620   3.71907   3.72874
 Alpha virt. eigenvalues --    3.73249   3.74713   3.75066   3.76464   3.76858
 Alpha virt. eigenvalues --    3.78347   3.80025   3.80671   3.81735   3.81878
 Alpha virt. eigenvalues --    3.84756   3.85114   3.86015   3.88291   3.88955
 Alpha virt. eigenvalues --    3.89263   3.90603   3.91283   3.92910   3.95037
 Alpha virt. eigenvalues --    3.96103   3.96163   3.99637   4.00773   4.02015
 Alpha virt. eigenvalues --    4.02759   4.03497   4.04370   4.05100   4.05637
 Alpha virt. eigenvalues --    4.06678   4.07254   4.09304   4.10533   4.11397
 Alpha virt. eigenvalues --    4.11866   4.13339   4.14810   4.16279   4.17643
 Alpha virt. eigenvalues --    4.18185   4.19507   4.20118   4.21580   4.21682
 Alpha virt. eigenvalues --    4.22153   4.25249   4.26585   4.27408   4.28338
 Alpha virt. eigenvalues --    4.28836   4.30040   4.30926   4.32919   4.33373
 Alpha virt. eigenvalues --    4.34872   4.37419   4.38682   4.42057   4.42767
 Alpha virt. eigenvalues --    4.44410   4.45191   4.46409   4.47435   4.49074
 Alpha virt. eigenvalues --    4.50410   4.54308   4.56090   4.57678   4.58644
 Alpha virt. eigenvalues --    4.60490   4.63436   4.63690   4.65744   4.68615
 Alpha virt. eigenvalues --    4.71725   4.72605   4.74254   4.74814   4.75460
 Alpha virt. eigenvalues --    4.77163   4.77511   4.79158   4.79891   4.80657
 Alpha virt. eigenvalues --    4.82476   4.83577   4.84814   4.85317   4.89230
 Alpha virt. eigenvalues --    4.90216   4.91010   4.93131   4.94303   4.95988
 Alpha virt. eigenvalues --    4.97136   4.99699   5.00170   5.02415   5.02932
 Alpha virt. eigenvalues --    5.03362   5.04140   5.04959   5.06788   5.08999
 Alpha virt. eigenvalues --    5.10248   5.10983   5.12499   5.13811   5.15361
 Alpha virt. eigenvalues --    5.17224   5.17906   5.19218   5.20912   5.21184
 Alpha virt. eigenvalues --    5.21607   5.22320   5.23628   5.24896   5.26090
 Alpha virt. eigenvalues --    5.27141   5.27915   5.32511   5.32922   5.33822
 Alpha virt. eigenvalues --    5.35392   5.36983   5.38024   5.40526   5.41076
 Alpha virt. eigenvalues --    5.44476   5.45902   5.56339   5.58002   5.60548
 Alpha virt. eigenvalues --    5.61231   5.65452   5.68692   5.69172   5.72054
 Alpha virt. eigenvalues --    5.72596   5.73513   5.76490   5.81154   5.82446
 Alpha virt. eigenvalues --    5.84799   5.85229   5.90062   5.91147   5.93036
 Alpha virt. eigenvalues --    5.94183   5.98593   6.01936   6.04745   6.08140
 Alpha virt. eigenvalues --    6.11283   6.27169   6.27904   6.35729   6.42458
 Alpha virt. eigenvalues --    6.47559   6.49900   6.51264   6.61759   6.67574
 Alpha virt. eigenvalues --    6.86322   6.91764   6.92667   6.93899   7.09339
 Alpha virt. eigenvalues --    7.12965   7.16130   7.17623   9.26701   9.56998
 Alpha virt. eigenvalues --   11.88390  12.09683  12.42588  12.72228  12.85367
 Alpha virt. eigenvalues --   13.22281  13.36063  13.43714  13.58426  13.96664
          Condensed to atoms (all electrons):
               1          2          3          4          5          6
     1  C    5.238897   0.207073  -0.024985   0.211234   0.417072   0.437433
     2  C    0.207073   5.174854   0.217186  -0.027696  -0.026038  -0.042759
     3  C   -0.024985   0.217186   5.077849  -0.095308   0.007067   0.003717
     4  C    0.211234  -0.027696  -0.095308   5.562929  -0.036432  -0.057983
     5  H    0.417072  -0.026038   0.007067  -0.036432   0.521770  -0.020821
     6  H    0.437433  -0.042759   0.003717  -0.057983  -0.020821   0.480122
     7  H   -0.044782   0.422859  -0.034760   0.002826  -0.004938   0.004612
     8  H   -0.038373   0.428802  -0.037191   0.008935  -0.000933  -0.004859
     9  H   -0.011346  -0.036774   0.424073   0.012379  -0.000186   0.000820
    10  H    0.009312  -0.021995   0.407272  -0.000985  -0.000105   0.000361
    11  H   -0.013457  -0.005381   0.007239   0.413091  -0.006192   0.005581
    12  C   -0.038116   0.001184   0.003415   0.129028   0.000318   0.001261
    13  N   -0.053360  -0.035945   0.285289   0.278444   0.005757  -0.001137
    14  O   -0.002248  -0.003355   0.004474  -0.089200   0.000210   0.007603
    15  N    0.004198  -0.000330   0.000503  -0.089381   0.002184  -0.000266
    16  H   -0.000597   0.000044  -0.000032   0.012565   0.000436  -0.000199
    17  C   -0.000011   0.000012   0.000009   0.005546  -0.000038   0.000148
    18  H   -0.000012   0.000002   0.000000  -0.000396   0.000016  -0.000016
    19  H    0.000074  -0.000012   0.000001  -0.000465  -0.000053   0.000117
    20  H   -0.000201   0.000035  -0.000027   0.004472  -0.000011  -0.000206
    21  C   -0.001250   0.008540  -0.056957  -0.068473   0.000285  -0.000494
    22  C   -0.000383   0.001083   0.006890   0.008944   0.000032   0.000032
    23  H   -0.000104  -0.000038  -0.000388  -0.011901  -0.000010  -0.000035
    24  H    0.000071  -0.000032  -0.000392  -0.000312  -0.000003   0.000000
    25  H    0.001498  -0.000429  -0.000068   0.017795  -0.000062   0.000022
    26  O   -0.000362   0.002679  -0.000026   0.002692   0.000017   0.000033
               7          8          9         10         11         12
     1  C   -0.044782  -0.038373  -0.011346   0.009312  -0.013457  -0.038116
     2  C    0.422859   0.428802  -0.036774  -0.021995  -0.005381   0.001184
     3  C   -0.034760  -0.037191   0.424073   0.407272   0.007239   0.003415
     4  C    0.002826   0.008935   0.012379  -0.000985   0.413091   0.129028
     5  H   -0.004938  -0.000933  -0.000186  -0.000105  -0.006192   0.000318
     6  H    0.004612  -0.004859   0.000820   0.000361   0.005581   0.001261
     7  H    0.535826  -0.023052   0.006009  -0.007902  -0.000410   0.001068
     8  H   -0.023052   0.537035  -0.002335  -0.000454  -0.000193  -0.000076
     9  H    0.006009  -0.002335   0.537306  -0.039662  -0.001108   0.002504
    10  H   -0.007902  -0.000454  -0.039662   0.538961   0.001493  -0.001027
    11  H   -0.000410  -0.000193  -0.001108   0.001493   0.480649  -0.069641
    12  C    0.001068  -0.000076   0.002504  -0.001027  -0.069641   4.813595
    13  N   -0.001080   0.004055  -0.058266  -0.041971  -0.033713  -0.035887
    14  O   -0.000072   0.000011   0.001761   0.000188   0.002685   0.737627
    15  N   -0.000052  -0.000005   0.000008   0.000037   0.005946   0.318000
    16  H   -0.000023   0.000001  -0.000034   0.000006   0.001202  -0.028335
    17  C    0.000002   0.000000   0.000002  -0.000001  -0.000433  -0.060778
    18  H    0.000000   0.000000   0.000000   0.000000   0.000055   0.000761
    19  H    0.000000   0.000000   0.000000   0.000000   0.000040   0.003645
    20  H    0.000001   0.000000   0.000000  -0.000001  -0.000441  -0.009182
    21  C    0.000244  -0.000135   0.000254  -0.007789  -0.003249   0.007837
    22  C   -0.000053   0.000030  -0.000285   0.001469  -0.001500  -0.011296
    23  H    0.000018   0.000000   0.000217  -0.000143  -0.001163   0.015264
    24  H   -0.000005  -0.000002  -0.000033   0.000004   0.000295  -0.000053
    25  H   -0.000009   0.000003   0.000036  -0.000261  -0.002308  -0.013401
    26  O   -0.000043   0.000018   0.001487   0.017729   0.000265  -0.000763
              13         14         15         16         17         18
     1  C   -0.053360  -0.002248   0.004198  -0.000597  -0.000011  -0.000012
     2  C   -0.035945  -0.003355  -0.000330   0.000044   0.000012   0.000002
     3  C    0.285289   0.004474   0.000503  -0.000032   0.000009   0.000000
     4  C    0.278444  -0.089200  -0.089381   0.012565   0.005546  -0.000396
     5  H    0.005757   0.000210   0.002184   0.000436  -0.000038   0.000016
     6  H   -0.001137   0.007603  -0.000266  -0.000199   0.000148  -0.000016
     7  H   -0.001080  -0.000072  -0.000052  -0.000023   0.000002   0.000000
     8  H    0.004055   0.000011  -0.000005   0.000001   0.000000   0.000000
     9  H   -0.058266   0.001761   0.000008  -0.000034   0.000002   0.000000
    10  H   -0.041971   0.000188   0.000037   0.000006  -0.000001   0.000000
    11  H   -0.033713   0.002685   0.005946   0.001202  -0.000433   0.000055
    12  C   -0.035887   0.737627   0.318000  -0.028335  -0.060778   0.000761
    13  N    6.634182  -0.005085   0.003372   0.000599  -0.000213   0.000044
    14  O   -0.005085   7.801150  -0.117881   0.004902  -0.018963  -0.000101
    15  N    0.003372  -0.117881   6.501091   0.373099   0.280229  -0.035723
    16  H    0.000599   0.004902   0.373099   0.532461  -0.031436  -0.003493
    17  C   -0.000213  -0.018963   0.280229  -0.031436   4.803132   0.401713
    18  H    0.000044  -0.000101  -0.035723  -0.003493   0.401713   0.612952
    19  H   -0.000011   0.000071  -0.037287  -0.004060   0.400267  -0.044846
    20  H   -0.000127   0.030706  -0.043511   0.005786   0.392718  -0.027307
    21  C    0.365504   0.009057  -0.000444  -0.000182  -0.000071   0.000016
    22  C   -0.089747  -0.007519   0.000249   0.000376   0.000011   0.000030
    23  H   -0.001730   0.004961  -0.004812  -0.000214   0.000485   0.000328
    24  H    0.007232   0.000001   0.000244   0.000009   0.000000  -0.000005
    25  H    0.000157  -0.000359   0.004764   0.000558  -0.000200  -0.000165
    26  O   -0.137284  -0.000098  -0.000007   0.000001   0.000000   0.000000
              19         20         21         22         23         24
     1  C    0.000074  -0.000201  -0.001250  -0.000383  -0.000104   0.000071
     2  C   -0.000012   0.000035   0.008540   0.001083  -0.000038  -0.000032
     3  C    0.000001  -0.000027  -0.056957   0.006890  -0.000388  -0.000392
     4  C   -0.000465   0.004472  -0.068473   0.008944  -0.011901  -0.000312
     5  H   -0.000053  -0.000011   0.000285   0.000032  -0.000010  -0.000003
     6  H    0.000117  -0.000206  -0.000494   0.000032  -0.000035   0.000000
     7  H    0.000000   0.000001   0.000244  -0.000053   0.000018  -0.000005
     8  H    0.000000   0.000000  -0.000135   0.000030   0.000000  -0.000002
     9  H    0.000000   0.000000   0.000254  -0.000285   0.000217  -0.000033
    10  H    0.000000  -0.000001  -0.007789   0.001469  -0.000143   0.000004
    11  H    0.000040  -0.000441  -0.003249  -0.001500  -0.001163   0.000295
    12  C    0.003645  -0.009182   0.007837  -0.011296   0.015264  -0.000053
    13  N   -0.000011  -0.000127   0.365504  -0.089747  -0.001730   0.007232
    14  O    0.000071   0.030706   0.009057  -0.007519   0.004961   0.000001
    15  N   -0.037287  -0.043511  -0.000444   0.000249  -0.004812   0.000244
    16  H   -0.004060   0.005786  -0.000182   0.000376  -0.000214   0.000009
    17  C    0.400267   0.392718  -0.000071   0.000011   0.000485   0.000000
    18  H   -0.044846  -0.027307   0.000016   0.000030   0.000328  -0.000005
    19  H    0.612618  -0.024517  -0.000007   0.000013  -0.000032   0.000001
    20  H   -0.024517   0.537778  -0.000065  -0.000020   0.000116  -0.000008
    21  C   -0.000007  -0.000065   4.536326   0.279956  -0.026444  -0.034049
    22  C    0.000013  -0.000020   0.279956   5.173387   0.380918   0.389590
    23  H   -0.000032   0.000116  -0.026444   0.380918   0.535278  -0.011674
    24  H    0.000001  -0.000008  -0.034049   0.389590  -0.011674   0.511642
    25  H    0.000035  -0.000025  -0.043084   0.369427  -0.034602  -0.007418
    26  O    0.000000   0.000001   0.737853  -0.078808   0.001128   0.010383
              25         26
     1  C    0.001498  -0.000362
     2  C   -0.000429   0.002679
     3  C   -0.000068  -0.000026
     4  C    0.017795   0.002692
     5  H   -0.000062   0.000017
     6  H    0.000022   0.000033
     7  H   -0.000009  -0.000043
     8  H    0.000003   0.000018
     9  H    0.000036   0.001487
    10  H   -0.000261   0.017729
    11  H   -0.002308   0.000265
    12  C   -0.013401  -0.000763
    13  N    0.000157  -0.137284
    14  O   -0.000359  -0.000098
    15  N    0.004764  -0.000007
    16  H    0.000558   0.000001
    17  C   -0.000200   0.000000
    18  H   -0.000165   0.000000
    19  H    0.000035   0.000000
    20  H   -0.000025   0.000001
    21  C   -0.043084   0.737853
    22  C    0.369427  -0.078808
    23  H   -0.034602   0.001128
    24  H   -0.007418   0.010383
    25  H    0.568542   0.002861
    26  O    0.002861   7.829511
 Mulliken charges:
               1
     1  C   -0.297276
     2  C   -0.263568
     3  C   -0.194851
     4  C   -0.192346
     5  H    0.140656
     6  H    0.186913
     7  H    0.143716
     8  H    0.128716
     9  H    0.163170
    10  H    0.145466
    11  H    0.220648
    12  C    0.233049
    13  N   -0.089078
    14  O   -0.360526
    15  N   -0.164228
    16  H    0.136561
    17  C   -0.172130
    18  H    0.096149
    19  H    0.094411
    20  H    0.134034
    21  C    0.296821
    22  C   -0.422827
    23  H    0.154577
    24  H    0.134515
    25  H    0.136694
    26  O   -0.389264
 Sum of Mulliken charges =   0.00000
 Mulliken charges with hydrogens summed into heavy atoms:
               1
     1  C    0.030293
     2  C    0.008864
     3  C    0.113784
     4  C    0.028302
    12  C    0.233049
    13  N   -0.089078
    14  O   -0.360526
    15  N   -0.027666
    17  C    0.152463
    21  C    0.296821
    22  C    0.002959
    26  O   -0.389264
 Electronic spatial extent (au):  <R**2>=           2179.5004
 Charge=              0.0000 electrons
 Dipole moment (field-independent basis, Debye):
    X=              3.9299    Y=              3.1518    Z=             -3.9857  Tot=              6.4237
 Quadrupole moment (field-independent basis, Debye-Ang):
   XX=            -71.7746   YY=            -71.8623   ZZ=            -73.4481
   XY=             -8.7086   XZ=             -3.0402   YZ=              2.0960
 Traceless Quadrupole moment (field-independent basis, Debye-Ang):
   XX=              0.5871   YY=              0.4994   ZZ=             -1.0864
   XY=             -8.7086   XZ=             -3.0402   YZ=              2.0960
 Octapole moment (field-independent basis, Debye-Ang**2):
  XXX=             57.2598  YYY=              2.2709  ZZZ=             -6.7717  XYY=             12.2464
  XXY=             23.0389  XXZ=             -9.0017  XZZ=              0.3141  YZZ=              1.0624
  YYZ=             -1.6548  XYZ=             -6.0954
 Hexadecapole moment (field-independent basis, Debye-Ang**3):
 XXXX=          -1589.5124 YYYY=           -925.1313 ZZZZ=           -242.9047 XXXY=            -60.3422
 XXXZ=              2.7241 YYYX=            -19.4910 YYYZ=              9.8069 ZZZX=            -17.2500
 ZZZY=             -3.5390 XXYY=           -469.4919 XXZZ=           -310.6298 YYZZ=           -194.5837
 XXYZ=              8.6242 YYXZ=              6.4135 ZZXY=              4.4385
 N-N= 7.633301127597D+02 E-N=-2.862812833368D+03  KE= 5.689949058860D+02
 Calculating spin-rotation constants.
 Leave Link  601 at Fri Sep 27 10:34:25 2013, MaxMem=  8589934592 cpu:       115.5
 (Enter /system/software/linux-x86_64/gaussian/g09/D.01__pgi_12.10__atlas/l9999.exe)

 Test job not archived.
 1\1\GINC-CARIBOU\SP\RM06\Gen\C8H14N2O2\KUPROV\27-Sep-2013\0\\#P Geom=A
 llCheck Guess=TCheck SCRF=Check GenChk RM06/ChkBas NMR=ReadFC IOp(3/6=
 22)\\J-coupling calculation 1\\0,1\C,0,2.7161644591,-2.6103100468,0.55
 73646073\C,0,4.0945974508,-2.6704713536,-0.0778445756\C,0,4.5796404724
 ,-1.243543285,0.0712720239\C,0,2.1662000057,-1.2518822081,0.1035184505
 \H,0,2.055583939,-3.4324542764,0.2848812835\H,0,2.814846044,-2.5963185
 64,1.6461971913\H,0,4.0158691014,-2.9294309586,-1.136778608\H,0,4.7505
 845333,-3.3963200749,0.3997255427\H,0,4.9849443937,-1.0588253245,1.072
 3553564\H,0,5.3337674312,-0.9406177366,-0.6526454822\H,0,1.5879209937,
 -1.3662896391,-0.8252465535\C,0,1.2784088311,-0.6860640434,1.204400541
 8\N,0,3.3616702578,-0.4706045329,-0.1318088136\O,0,1.7391443436,-0.160
 1207965,2.1911377092\N,0,-0.0479610304,-0.8873829594,0.9995141313\H,0,
 -0.3380215159,-1.304513759,0.1321686136\C,0,-1.0487573693,-0.510807488
 3,1.9668690045\H,0,-1.7356909066,0.2334271645,1.5618969213\H,0,-1.6246
 227447,-1.3743282811,2.3020546967\H,0,-0.531410258,-0.0801816012,2.821
 0956506\C,0,3.4269337004,0.843760733,-0.4918026442\C,0,2.1149566633,1.
 5510626953,-0.6958795725\H,0,1.6774806051,1.8004779403,0.2724224931\H,
 0,2.3079785611,2.4720647198,-1.2383884209\H,0,1.3900184887,0.948655659
 6,-1.2460417788\O,0,4.4911296595,1.4049823269,-0.6406884182\\Version=E
 M64L-G09RevD.01\State=1-A\HF=-573.0811986\RMSD=4.003e-09\Dipole=-1.859
 5641,-1.6266837,-0.5320332\Quadrupole=3.5457757,-0.8617829,-2.6839927,
 -5.8519045,2.1191574,0.9764881\PG=C01 [X(C8H14N2O2)]\\@


 Everywhere is walking distance if you have the time.
                                    -- Steven Wright
 Job cpu time:       3 days 22 hours  0 minutes 24.9 seconds.
 File lengths (MBytes):  RWF=   1454 Int=      0 D2E=      0 Chk=     43 Scr=      1
 Normal termination of Gaussian 09 at Fri Sep 27 10:34:27 2013.
