 Entering Gaussian System, Link 0=g09
 Input=serine.gjf
 Output=serine.log
 Initial command:
 /home/ztw1e12/g09/l1.exe /home/ztw1e12/Gau-9117.inp -scrdir=/home/ztw1e12/
 Default is to use a total of   8 processors:
                                8 via shared-memory
                                1 via Linda
 Entering Link 1 = /home/ztw1e12/g09/l1.exe PID=      9118.
  
 Copyright (c) 1988,1990,1992,1993,1995,1998,2003,2009, Gaussian, Inc.
                  All Rights Reserved.
  
 This is part of the Gaussian(R) 09 program.  It is based on
 the Gaussian(R) 03 system (copyright 2003, Gaussian, Inc.),
 the Gaussian(R) 98 system (copyright 1998, Gaussian, Inc.),
 the Gaussian(R) 94 system (copyright 1995, Gaussian, Inc.),
 the Gaussian 92(TM) system (copyright 1992, Gaussian, Inc.),
 the Gaussian 90(TM) system (copyright 1990, Gaussian, Inc.),
 the Gaussian 88(TM) system (copyright 1988, Gaussian, Inc.),
 the Gaussian 86(TM) system (copyright 1986, Carnegie Mellon
 University), and the Gaussian 82(TM) system (copyright 1983,
 Carnegie Mellon University). Gaussian is a federally registered
 trademark of Gaussian, Inc.
  
 This software contains proprietary and confidential information,
 including trade secrets, belonging to Gaussian, Inc.
  
 This software is provided under written license and may be
 used, copied, transmitted, or stored only in accord with that
 written license.
  
 The following legend is applicable only to US Government
 contracts under FAR:
  
                    RESTRICTED RIGHTS LEGEND
  
 Use, reproduction and disclosure by the US Government is
 subject to restrictions as set forth in subparagraphs (a)
 and (c) of the Commercial Computer Software - Restricted
 Rights clause in FAR 52.227-19.
  
 Gaussian, Inc.
 340 Quinnipiac St., Bldg. 40, Wallingford CT 06492
  
  
 ---------------------------------------------------------------
 Warning -- This program may not be used in any manner that
 competes with the business of Gaussian, Inc. or will provide
 assistance to any competitor of Gaussian, Inc.  The licensee
 of this program is prohibited from giving any competitor of
 Gaussian, Inc. access to this program.  By using this program,
 the user acknowledges that Gaussian, Inc. is engaged in the
 business of creating and licensing software in the field of
 computational chemistry and represents and warrants to the
 licensee that it is not a competitor of Gaussian, Inc. and that
 it will not use this program in any manner prohibited above.
 ---------------------------------------------------------------
  

 Cite this work as:
 Gaussian 09, Revision A.02,
 M. J. Frisch, G. W. Trucks, H. B. Schlegel, G. E. Scuseria, 
 M. A. Robb, J. R. Cheeseman, G. Scalmani, V. Barone, B. Mennucci, 
 G. A. Petersson, H. Nakatsuji, M. Caricato, X. Li, H. P. Hratchian, 
 A. F. Izmaylov, J. Bloino, G. Zheng, J. L. Sonnenberg, M. Hada, 
 M. Ehara, K. Toyota, R. Fukuda, J. Hasegawa, M. Ishida, T. Nakajima, 
 Y. Honda, O. Kitao, H. Nakai, T. Vreven, J. A. Montgomery, Jr., 
 J. E. Peralta, F. Ogliaro, M. Bearpark, J. J. Heyd, E. Brothers, 
 K. N. Kudin, V. N. Staroverov, R. Kobayashi, J. Normand, 
 K. Raghavachari, A. Rendell, J. C. Burant, S. S. Iyengar, J. Tomasi, 
 M. Cossi, N. Rega, J. M. Millam, M. Klene, J. E. Knox, J. B. Cross, 
 V. Bakken, C. Adamo, J. Jaramillo, R. Gomperts, R. E. Stratmann, 
 O. Yazyev, A. J. Austin, R. Cammi, C. Pomelli, J. W. Ochterski, 
 R. L. Martin, K. Morokuma, V. G. Zakrzewski, G. A. Voth, 
 P. Salvador, J. J. Dannenberg, S. Dapprich, A. D. Daniels, 
 O. Farkas, J. B. Foresman, J. V. Ortiz, J. Cioslowski, 
 and D. J. Fox, Gaussian, Inc., Wallingford CT, 2009.
 
 ******************************************
 Gaussian 09:  EM64L-G09RevA.02 11-Jun-2009
                23-Feb-2013 
 ******************************************
 %Chk=serine.chk
 %Mem=16GB
 %NProcShared=12
 Will use up to   12 processors via shared memory.
 Default route:  MaxDisk=100GB
 ------------------------------------------------------------
 #p opt=tight m06/cc-pvtz scf=tight integral=(grid=ultrafine)
 ------------------------------------------------------------
 1/7=10,14=-1,18=20,19=15,26=3,38=1/1,3;
 2/9=110,12=2,17=6,18=5,40=1/2;
 3/5=16,6=1,11=2,16=1,25=1,30=1,71=1,74=-54,75=-5/1,2,3;
 4//1;
 5/5=2,32=2,38=5/2;
 6/7=2,8=2,9=2,10=2,28=1/1;
 7//1,2,3,16;
 1/7=10,14=-1,18=20,19=15/3(2);
 2/9=110/2;
 99//99;
 2/9=110/2;
 3/5=16,6=1,11=2,16=1,25=1,30=1,71=1,74=-54,75=-5/1,2,3;
 4/5=5,16=3/1;
 5/5=2,32=2,38=5/2;
 7//1,2,3,16;
 1/7=10,14=-1,18=20,19=15/3(-5);
 2/9=110/2;
 6/7=2,8=2,9=2,10=2,19=2,28=1/1;
 99/9=1/99;
 Leave Link    1 at Sat Feb 23 07:54:47 2013, MaxMem= 2147483648 cpu:       2.5
 (Enter /home/ztw1e12/g09/l101.exe)
 ---------------------
 Geometry optimisation
 ---------------------
 Symbolic Z-matrix:
 Charge =  0 Multiplicity = 1
 C                    -4.36806  -0.31042  -0.19464 
 C                    -4.07663   0.34928   1.16604 
 H                    -3.08973   0.08689   1.48555 
 C                    -4.18153   1.87946   1.02761 
 H                    -3.97904   2.33782   1.97301 
 H                    -3.47001   2.22187   0.30553 
 O                    -5.50046   2.23013   0.60059 
 H                    -5.56585   3.18401   0.51429 
 N                    -5.05413  -0.12113   2.15805 
 H                    -4.86489   0.30725   3.04161 
 O                    -5.54644  -0.62987  -0.4995 
 N                    -3.26971  -0.56699  -1.13736 
 H                    -2.88946  -1.47599  -0.96672 
 C                    -3.78007  -0.49991  -2.51429 
 H                    -2.98059  -0.68666  -3.20049 
 H                    -4.54415  -1.23697  -2.64776 
 H                    -4.18694   0.47272  -2.69688 
 C                    -4.954    -1.58175   2.29019 
 C                    -5.80938  -2.49642   1.39392 
 H                    -5.98846  -2.01147   0.45709 
 H                    -5.2907   -3.41703   1.22557 
 H                    -6.7433   -2.69628   1.87635 
 O                    -4.16932  -2.08471   3.13569 
 
 NAtoms=     23 NQM=     23 NQMF=      0 NMic=      0 NMicF=      0 NTot=     23.
                    Isotopes and Nuclear Properties:
 (Nuclear quadrupole moments (NQMom) in fm**2, nuclear magnetic moments (NMagM)
  in nuclear magnetons)

  Atom         1           2           3           4           5           6           7           8           9          10
 IAtWgt=          12          12           1          12           1           1          16           1          14           1
 AtmWgt=  12.0000000  12.0000000   1.0078250  12.0000000   1.0078250   1.0078250  15.9949146   1.0078250  14.0030740   1.0078250
 NucSpn=           0           0           1           0           1           1           0           1           2           1
 AtZEff=   0.0000000   0.0000000   0.0000000   0.0000000   0.0000000   0.0000000   0.0000000   0.0000000   0.0000000   0.0000000
 NQMom=    0.0000000   0.0000000   0.0000000   0.0000000   0.0000000   0.0000000   0.0000000   0.0000000   2.0440000   0.0000000
 NMagM=    0.0000000   0.0000000   2.7928460   0.0000000   2.7928460   2.7928460   0.0000000   2.7928460   0.4037610   2.7928460

  Atom        11          12          13          14          15          16          17          18          19          20
 IAtWgt=          16          14           1          12           1           1           1          12          12           1
 AtmWgt=  15.9949146  14.0030740   1.0078250  12.0000000   1.0078250   1.0078250   1.0078250  12.0000000  12.0000000   1.0078250
 NucSpn=           0           2           1           0           1           1           1           0           0           1
 AtZEff=   0.0000000   0.0000000   0.0000000   0.0000000   0.0000000   0.0000000   0.0000000   0.0000000   0.0000000   0.0000000
 NQMom=    0.0000000   2.0440000   0.0000000   0.0000000   0.0000000   0.0000000   0.0000000   0.0000000   0.0000000   0.0000000
 NMagM=    0.0000000   0.4037610   2.7928460   0.0000000   2.7928460   2.7928460   2.7928460   0.0000000   0.0000000   2.7928460

  Atom        21          22          23
 IAtWgt=           1           1          16
 AtmWgt=   1.0078250   1.0078250  15.9949146
 NucSpn=           1           1           0
 AtZEff=   0.0000000   0.0000000   0.0000000
 NQMom=    0.0000000   0.0000000   0.0000000
 NMagM=    2.7928460   2.7928460   0.0000000
 Leave Link  101 at Sat Feb 23 07:54:47 2013, MaxMem= 2147483648 cpu:       1.2
 (Enter /home/ztw1e12/g09/l103.exe)

 GradGradGradGradGradGradGradGradGradGradGradGradGradGradGradGradGradGrad
 Berny optimization.
 Initialization pass.
                           ----------------------------
                           !    Initial Parameters    !
                           ! (Angstroms and Degrees)  !
 --------------------------                            --------------------------
 ! Name  Definition              Value          Derivative Info.                !
 --------------------------------------------------------------------------------
 ! R1    R(1,2)                  1.54           estimate D2E/DX2                !
 ! R2    R(1,11)                 1.2584         estimate D2E/DX2                !
 ! R3    R(1,12)                 1.47           estimate D2E/DX2                !
 ! R4    R(2,3)                  1.07           estimate D2E/DX2                !
 ! R5    R(2,4)                  1.54           estimate D2E/DX2                !
 ! R6    R(2,9)                  1.47           estimate D2E/DX2                !
 ! R7    R(4,5)                  1.07           estimate D2E/DX2                !
 ! R8    R(4,6)                  1.07           estimate D2E/DX2                !
 ! R9    R(4,7)                  1.43           estimate D2E/DX2                !
 ! R10   R(7,8)                  0.96           estimate D2E/DX2                !
 ! R11   R(9,10)                 1.0            estimate D2E/DX2                !
 ! R12   R(9,18)                 1.47           estimate D2E/DX2                !
 ! R13   R(11,20)                1.7376         estimate D2E/DX2                !
 ! R14   R(12,13)                1.0            estimate D2E/DX2                !
 ! R15   R(12,14)                1.47           estimate D2E/DX2                !
 ! R16   R(14,15)                1.07           estimate D2E/DX2                !
 ! R17   R(14,16)                1.07           estimate D2E/DX2                !
 ! R18   R(14,17)                1.07           estimate D2E/DX2                !
 ! R19   R(18,19)                1.54           estimate D2E/DX2                !
 ! R20   R(18,23)                1.2584         estimate D2E/DX2                !
 ! R21   R(19,20)                1.07           estimate D2E/DX2                !
 ! R22   R(19,21)                1.07           estimate D2E/DX2                !
 ! R23   R(19,22)                1.07           estimate D2E/DX2                !
 ! A1    A(2,1,11)             120.0            estimate D2E/DX2                !
 ! A2    A(2,1,12)             120.0            estimate D2E/DX2                !
 ! A3    A(11,1,12)            120.0            estimate D2E/DX2                !
 ! A4    A(1,2,3)              109.4712         estimate D2E/DX2                !
 ! A5    A(1,2,4)              109.4712         estimate D2E/DX2                !
 ! A6    A(1,2,9)              109.4712         estimate D2E/DX2                !
 ! A7    A(3,2,4)              109.4712         estimate D2E/DX2                !
 ! A8    A(3,2,9)              109.4712         estimate D2E/DX2                !
 ! A9    A(4,2,9)              109.4712         estimate D2E/DX2                !
 ! A10   A(2,4,5)              109.4712         estimate D2E/DX2                !
 ! A11   A(2,4,6)              109.4712         estimate D2E/DX2                !
 ! A12   A(2,4,7)              109.4712         estimate D2E/DX2                !
 ! A13   A(5,4,6)              109.4712         estimate D2E/DX2                !
 ! A14   A(5,4,7)              109.4712         estimate D2E/DX2                !
 ! A15   A(6,4,7)              109.4712         estimate D2E/DX2                !
 ! A16   A(4,7,8)              109.4712         estimate D2E/DX2                !
 ! A17   A(2,9,10)             109.4712         estimate D2E/DX2                !
 ! A18   A(2,9,18)             109.4712         estimate D2E/DX2                !
 ! A19   A(10,9,18)            109.4712         estimate D2E/DX2                !
 ! A20   A(1,12,13)            109.4712         estimate D2E/DX2                !
 ! A21   A(1,12,14)            109.4712         estimate D2E/DX2                !
 ! A22   A(13,12,14)           109.4712         estimate D2E/DX2                !
 ! A23   A(12,14,15)           109.4712         estimate D2E/DX2                !
 ! A24   A(12,14,16)           109.4712         estimate D2E/DX2                !
 ! A25   A(12,14,17)           109.4712         estimate D2E/DX2                !
 ! A26   A(15,14,16)           109.4712         estimate D2E/DX2                !
 ! A27   A(15,14,17)           109.4712         estimate D2E/DX2                !
 ! A28   A(16,14,17)           109.4712         estimate D2E/DX2                !
 ! A29   A(9,18,19)            120.0            estimate D2E/DX2                !
 ! A30   A(9,18,23)            120.0            estimate D2E/DX2                !
 ! A31   A(19,18,23)           120.0            estimate D2E/DX2                !
 ! A32   A(18,19,20)           109.4712         estimate D2E/DX2                !
 ! A33   A(18,19,21)           109.4712         estimate D2E/DX2                !
 ! A34   A(18,19,22)           109.4712         estimate D2E/DX2                !
 ! A35   A(20,19,21)           109.4712         estimate D2E/DX2                !
 ! A36   A(20,19,22)           109.4712         estimate D2E/DX2                !
 ! A37   A(21,19,22)           109.4712         estimate D2E/DX2                !
 ! D1    D(11,1,2,3)           150.0            estimate D2E/DX2                !
 ! D2    D(11,1,2,4)           -90.0            estimate D2E/DX2                !
 ! D3    D(11,1,2,9)            30.0            estimate D2E/DX2                !
 ! D4    D(12,1,2,3)           -30.0            estimate D2E/DX2                !
 ! D5    D(12,1,2,4)            90.0            estimate D2E/DX2                !
 ! D6    D(12,1,2,9)          -150.0            estimate D2E/DX2                !
 ! D7    D(2,1,12,13)           90.0            estimate D2E/DX2                !
 ! D8    D(2,1,12,14)         -150.0            estimate D2E/DX2                !
 ! D9    D(11,1,12,13)         -90.0            estimate D2E/DX2                !
 ! D10   D(11,1,12,14)          30.0            estimate D2E/DX2                !
 ! D11   D(1,2,4,5)            180.0            estimate D2E/DX2                !
 ! D12   D(1,2,4,6)            -60.0            estimate D2E/DX2                !
 ! D13   D(1,2,4,7)             60.0            estimate D2E/DX2                !
 ! D14   D(3,2,4,5)            -60.0            estimate D2E/DX2                !
 ! D15   D(3,2,4,6)             60.0            estimate D2E/DX2                !
 ! D16   D(3,2,4,7)           -180.0            estimate D2E/DX2                !
 ! D17   D(9,2,4,5)             60.0            estimate D2E/DX2                !
 ! D18   D(9,2,4,6)           -180.0            estimate D2E/DX2                !
 ! D19   D(9,2,4,7)            -60.0            estimate D2E/DX2                !
 ! D20   D(1,2,9,10)           180.0            estimate D2E/DX2                !
 ! D21   D(1,2,9,18)            60.0            estimate D2E/DX2                !
 ! D22   D(3,2,9,10)            60.0            estimate D2E/DX2                !
 ! D23   D(3,2,9,18)           -60.0            estimate D2E/DX2                !
 ! D24   D(4,2,9,10)           -60.0            estimate D2E/DX2                !
 ! D25   D(4,2,9,18)           180.0            estimate D2E/DX2                !
 ! D26   D(2,4,7,8)            180.0            estimate D2E/DX2                !
 ! D27   D(5,4,7,8)             60.0            estimate D2E/DX2                !
 ! D28   D(6,4,7,8)            -60.0            estimate D2E/DX2                !
 ! D29   D(2,9,18,19)          -90.0            estimate D2E/DX2                !
 ! D30   D(2,9,18,23)           90.0            estimate D2E/DX2                !
 ! D31   D(10,9,18,19)         150.0            estimate D2E/DX2                !
 ! D32   D(10,9,18,23)         -30.0            estimate D2E/DX2                !
 ! D33   D(1,12,14,15)         180.0            estimate D2E/DX2                !
 ! D34   D(1,12,14,16)         -60.0            estimate D2E/DX2                !
 ! D35   D(1,12,14,17)          60.0            estimate D2E/DX2                !
 ! D36   D(13,12,14,15)        -60.0            estimate D2E/DX2                !
 ! D37   D(13,12,14,16)         60.0            estimate D2E/DX2                !
 ! D38   D(13,12,14,17)       -180.0            estimate D2E/DX2                !
 ! D39   D(9,18,19,20)          30.0            estimate D2E/DX2                !
 ! D40   D(9,18,19,21)         150.0            estimate D2E/DX2                !
 ! D41   D(9,18,19,22)         -90.0            estimate D2E/DX2                !
 ! D42   D(23,18,19,20)       -150.0            estimate D2E/DX2                !
 ! D43   D(23,18,19,21)        -30.0            estimate D2E/DX2                !
 ! D44   D(23,18,19,22)         90.0            estimate D2E/DX2                !
 --------------------------------------------------------------------------------
 Trust Radius=3.00D-01 FncErr=1.00D-07 GrdErr=1.00D-06
 Number of steps in this run= 114 maximum allowed number of steps= 138.
 GradGradGradGradGradGradGradGradGradGradGradGradGradGradGradGradGradGrad

 Leave Link  103 at Sat Feb 23 07:54:48 2013, MaxMem= 2147483648 cpu:       0.4
 (Enter /home/ztw1e12/g09/l202.exe)
                          Input orientation:                          
 ---------------------------------------------------------------------
 Center     Atomic      Atomic             Coordinates (Angstroms)
 Number     Number       Type             X           Y           Z
 ---------------------------------------------------------------------
      1          6           0       -4.368058   -0.310425   -0.194644
      2          6           0       -4.076627    0.349282    1.166038
      3          1           0       -3.089733    0.086888    1.485553
      4          6           0       -4.181528    1.879456    1.027606
      5          1           0       -3.979040    2.337824    1.973014
      6          1           0       -3.470008    2.221867    0.305529
      7          8           0       -5.500461    2.230133    0.600590
      8          1           0       -5.565854    3.184007    0.514295
      9          7           0       -5.054135   -0.121132    2.158050
     10          1           0       -4.864894    0.307249    3.041609
     11          8           0       -5.546442   -0.629869   -0.499498
     12          7           0       -3.269713   -0.566987   -1.137360
     13          1           0       -2.889457   -1.475990   -0.966717
     14          6           0       -3.780068   -0.499912   -2.514291
     15          1           0       -2.980592   -0.686661   -3.200486
     16          1           0       -4.544153   -1.236974   -2.647764
     17          1           0       -4.186942    0.472721   -2.696879
     18          6           0       -4.954002   -1.581753    2.290189
     19          6           0       -5.809381   -2.496422    1.393916
     20          1           0       -5.988464   -2.011468    0.457087
     21          1           0       -5.290697   -3.417035    1.225573
     22          1           0       -6.743303   -2.696281    1.876353
     23          8           0       -4.169315   -2.084708    3.135692
 ---------------------------------------------------------------------
                    Distance matrix (angstroms):
                    1          2          3          4          5
     1  C    0.000000
     2  C    1.540000   0.000000
     3  H    2.148263   1.070000   0.000000
     4  C    2.514809   1.540000   2.148263   0.000000
     5  H    3.444314   2.148263   2.468846   1.070000   0.000000
     6  H    2.732978   2.148263   2.468846   1.070000   1.747303
     7  O    2.892951   2.425826   3.344887   1.430000   2.051796
     8  H    3.761431   3.267757   4.082483   1.970203   2.315570
     9  N    2.457987   1.470000   2.086720   2.457987   2.690081
    10  H    3.331921   2.034920   2.370879   2.644813   2.459648
    11  O    1.258400   2.427572   3.238764   3.239097   4.168606
    12  N    1.470000   2.606971   2.709173   3.391691   4.314568
    13  H    2.034920   3.047890   2.914846   4.111665   4.937043
    14  C    2.400500   3.788654   4.101176   4.285743   5.313026
    15  H    3.331921   4.619632   4.750710   5.089594   6.075320
    16  H    2.628174   4.156906   4.577363   4.832388   5.869423
    17  H    2.628174   3.866462   4.341137   3.981296   5.032865
    18  C    2.852017   2.400500   2.628174   3.764412   4.051448
    19  C    3.062600   3.339521   3.752116   4.683204   5.201485
    20  H    2.438036   3.119436   3.723370   4.327794   5.025153
    21  H    3.538262   3.957607   4.145999   5.415004   5.949581
    22  H    3.952610   4.109886   4.609483   5.312291   5.743928
    23  O    3.778718   3.132481   2.933306   4.489852   4.576769
                    6          7          8          9         10
     6  H    0.000000
     7  O    2.051796   0.000000
     8  H    2.315570   0.960000   0.000000
     9  N    3.380966   2.855404   3.726625   0.000000
    10  H    3.619061   3.171750   3.892865   1.000000   0.000000
    11  O    3.618293   3.064624   3.946366   2.750226   3.725875
    12  N    3.146387   3.977510   4.697892   3.773947   4.557705
    13  H    3.953453   4.796784   5.574233   4.035547   4.811338
    14  C    3.931361   4.485017   5.092409   4.857724   5.718075
    15  H    4.581616   5.413465   5.955271   5.773500   6.595620
    16  H    4.673254   4.846355   5.530602   4.959942   5.903936
    17  H    3.547951   3.960698   4.423133   4.967395   5.780765
    18  C    4.539673   4.205215   5.122561   1.470000   2.034920
    19  C    5.377685   4.802616   5.753288   2.606971   3.386373
    20  H    4.928155   4.271992   5.212949   2.709173   3.649468
    21  H    5.996549   5.685517   6.644952   3.433431   4.165284
    22  H    6.113111   5.238490   6.149746   3.092577   3.729268
    23  O    5.200522   5.178468   6.048256   2.365231   2.492817
                   11         12         13         14         15
    11  O    0.000000
    12  N    2.365231   0.000000
    13  H    2.827328   1.000000   0.000000
    14  C    2.682602   1.470000   2.034920   0.000000
    15  H    3.725875   2.086720   2.370879   1.070000   0.000000
    16  H    2.447081   2.086720   2.370879   1.070000   1.747303
    17  H    2.809346   2.086720   2.911082   1.070000   1.747303
    18  C    3.006564   3.951541   3.857586   5.062759   5.902800
    19  C    2.671736   4.071854   3.890993   4.835105   5.690853
    20  H    1.737600   3.467045   3.452217   3.998862   4.917341
    21  H    3.287791   4.217891   3.786786   4.977769   5.690476
    22  H    3.368561   5.067760   4.942094   5.734331   6.631052
    23  O    4.150619   4.622957   4.340315   5.880935   6.596570
                   16         17         18         19         20
    16  H    0.000000
    17  H    1.747303   0.000000
    18  C    4.966914   5.447944   0.000000
    19  C    4.418392   5.308740   1.540000   0.000000
    20  H    3.510837   4.400475   2.148263   1.070000   0.000000
    21  H    4.506965   5.633302   2.148263   1.070000   1.747303
    22  H    5.237697   6.123071   2.148263   1.070000   1.747303
    23  O    5.857262   6.368644   1.258400   2.427572   3.238764
                   21         22         23
    21  H    0.000000
    22  H    1.747303   0.000000
    23  O    2.584792   2.930080   0.000000
 Stoichiometry    C6H12N2O3
 Framework group  C1[X(C6H12N2O3)]
 Deg. of freedom    63
 Full point group                 C1      NOp   1
 Largest Abelian subgroup         C1      NOp   1
 Largest concise Abelian subgroup C1      NOp   1
                         Standard orientation:                         
 ---------------------------------------------------------------------
 Center     Atomic      Atomic             Coordinates (Angstroms)
 Number     Number       Type             X           Y           Z
 ---------------------------------------------------------------------
      1          6           0       -0.747608   -0.402140   -0.066047
      2          6           0        0.039963    0.793914   -0.632428
      3          1           0        0.254161    0.622362   -1.666637
      4          6           0       -0.800201    2.076446   -0.488081
      5          1           0       -0.252992    2.907470   -0.881605
      6          1           0       -1.716962    1.964979   -1.028474
      7          8           0       -1.086465    2.305716    0.894086
      8          1           0       -1.610204    3.105217    0.984068
      9          7           0        1.299439    0.947050    0.109981
     10          1           0        1.810849    1.723708   -0.257798
     11          8           0       -0.631193   -0.714293    1.147451
     12          7           0       -1.635371   -1.179187   -0.942960
     13          1           0       -1.120646   -1.929315   -1.358131
     14          6           0       -2.747857   -1.726456   -0.153169
     15          1           0       -3.394052   -2.292062   -0.791465
     16          1           0       -2.360677   -2.361840    0.615778
     17          1           0       -3.298612   -0.923819    0.291064
     18          6           0        2.101414   -0.277185   -0.027804
     19          6           0        1.940330   -1.421813    0.989782
     20          1           0        0.938809   -1.425920    1.366396
     21          1           0        2.145059   -2.356404    0.510694
     22          1           0        2.625200   -1.278407    1.799280
     23          8           0        2.919576   -0.389873   -0.977268
 ---------------------------------------------------------------------
 Rotational constants (GHZ):      1.2779215      0.8834358      0.6503458
 Leave Link  202 at Sat Feb 23 07:54:48 2013, MaxMem= 2147483648 cpu:       0.2
 (Enter /home/ztw1e12/g09/l301.exe)
 Standard basis: CC-pVTZ (5D, 7F)
 Ernie: Thresh=  0.10000D-02 Tol=  0.10000D-05 Strict=F.
 Ernie:  33 primitive shells out of 382 were deleted.
 There are   498 symmetry adapted basis functions of A   symmetry.
 Integral buffers will be    131072 words long.
 Raffenetti 2 integral format.
 Two-electron integral symmetry is turned on.
   498 basis functions,   776 primitive gaussians,   565 cartesian basis functions
    43 alpha electrons       43 beta electrons
       nuclear repulsion energy       665.6680954492 Hartrees.
 IExCor= 4235 DFT=T Ex+Corr=M06 ExCW=0 ScaHFX=  0.270000
 ScaDFX=  1.000000  1.000000  1.000000  1.000000 ScalE2=  1.000000  1.000000
 IRadAn=      5 IRanWt=     -1 IRanGd=            0 ICorTp=0
 NAtoms=   23 NActive=   23 NUniq=   23 SFac= 7.50D-01 NAtFMM=   80 NAOKFM=F Big=F
 Leave Link  301 at Sat Feb 23 07:54:48 2013, MaxMem= 2147483648 cpu:       1.6
 (Enter /home/ztw1e12/g09/l302.exe)
 NPDir=0 NMtPBC=     1 NCelOv=     1 NCel=       1 NClECP=     1 NCelD=      1
         NCelK=      1 NCelE2=     1 NClLst=     1 CellRange=     0.0.
 One-electron integrals computed using PRISM.
 NBasis=   498 RedAO= T  NBF=   498
 NBsUse=   498 1.00D-06 NBFU=   498
 Precomputing XC quadrature grid using
 IXCGrd= 2 IRadAn=           5 IRanWt=          -1 IRanGd=           0 AccXCQ= 1.00D-10.
 NRdTot=    1924 NPtTot=      517122 NUsed=      530902 NTot=      530934
 NSgBfM=   564   564   564   565   565 NAtAll=    23    23.
 Leave Link  302 at Sat Feb 23 07:54:49 2013, MaxMem= 2147483648 cpu:      13.1
 (Enter /home/ztw1e12/g09/l303.exe)
 DipDrv:  MaxL=1.
 Leave Link  303 at Sat Feb 23 07:54:50 2013, MaxMem= 2147483648 cpu:       1.6
 (Enter /home/ztw1e12/g09/l401.exe)
 Harris functional with IExCor= 1009 diagonalized for initial guess.
 ExpMin= 1.03D-01 ExpMax= 1.53D+04 ExpMxC= 5.22D+02 IAcc=3 IRadAn=         5 AccDes= 0.00D+00
 HarFok:  IExCor= 1009 AccDes= 0.00D+00 IRadAn=         5 IDoV= 1
 ScaDFX=  1.000000  1.000000  1.000000  1.000000
 FoFCou: FMM=F IPFlag=           0 FMFlag=      100000 FMFlg1=           0
         NFxFlg=           0 DoJE=T BraDBF=F KetDBF=T FulRan=T
         Omega=  0.000000  0.000000  1.000000  0.000000  0.000000 ICntrl=     500 IOpCl=  0
         NMat0=    1 NMatS0=    1 NMatT0=    0 NMatD0=    1 NMtDS0=    0 NMtDT0=    0
         I1Cent=           4 NGrid=           0.
 Petite list used in FoFCou.
 Harris En= -570.800344497173    
 Initial guess orbital symmetries:
       Occupied  (A) (A) (A) (A) (A) (A) (A) (A) (A) (A) (A) (A)
                 (A) (A) (A) (A) (A) (A) (A) (A) (A) (A) (A) (A)
                 (A) (A) (A) (A) (A) (A) (A) (A) (A) (A) (A) (A)
                 (A) (A) (A) (A) (A) (A) (A)
       Virtual   (A) (A) (A) (A) (A) (A) (A) (A) (A) (A) (A) (A)
                 (A) (A) (A) (A) (A) (A) (A) (A) (A) (A) (A) (A)
                 (A) (A) (A) (A) (A) (A) (A) (A) (A) (A) (A) (A)
                 (A) (A) (A) (A) (A) (A) (A) (A) (A) (A) (A) (A)
                 (A) (A) (A) (A) (A) (A) (A) (A) (A) (A) (A) (A)
                 (A) (A) (A) (A) (A) (A) (A) (A) (A) (A) (A) (A)
                 (A) (A) (A) (A) (A) (A) (A) (A) (A) (A) (A) (A)
                 (A) (A) (A) (A) (A) (A) (A) (A) (A) (A) (A) (A)
                 (A) (A) (A) (A) (A) (A) (A) (A) (A) (A) (A) (A)
                 (A) (A) (A) (A) (A) (A) (A) (A) (A) (A) (A) (A)
                 (A) (A) (A) (A) (A) (A) (A) (A) (A) (A) (A) (A)
                 (A) (A) (A) (A) (A) (A) (A) (A) (A) (A) (A) (A)
                 (A) (A) (A) (A) (A) (A) (A) (A) (A) (A) (A) (A)
                 (A) (A) (A) (A) (A) (A) (A) (A) (A) (A) (A) (A)
                 (A) (A) (A) (A) (A) (A) (A) (A) (A) (A) (A) (A)
                 (A) (A) (A) (A) (A) (A) (A) (A) (A) (A) (A) (A)
                 (A) (A) (A) (A) (A) (A) (A) (A) (A) (A) (A) (A)
                 (A) (A) (A) (A) (A) (A) (A) (A) (A) (A) (A) (A)
                 (A) (A) (A) (A) (A) (A) (A) (A) (A) (A) (A) (A)
                 (A) (A) (A) (A) (A) (A) (A) (A) (A) (A) (A) (A)
                 (A) (A) (A) (A) (A) (A) (A) (A) (A) (A) (A) (A)
                 (A) (A) (A) (A) (A) (A) (A) (A) (A) (A) (A) (A)
                 (A) (A) (A) (A) (A) (A) (A) (A) (A) (A) (A) (A)
                 (A) (A) (A) (A) (A) (A) (A) (A) (A) (A) (A) (A)
                 (A) (A) (A) (A) (A) (A) (A) (A) (A) (A) (A) (A)
                 (A) (A) (A) (A) (A) (A) (A) (A) (A) (A) (A) (A)
                 (A) (A) (A) (A) (A) (A) (A) (A) (A) (A) (A) (A)
                 (A) (A) (A) (A) (A) (A) (A) (A) (A) (A) (A) (A)
                 (A) (A) (A) (A) (A) (A) (A) (A) (A) (A) (A) (A)
                 (A) (A) (A) (A) (A) (A) (A) (A) (A) (A) (A) (A)
                 (A) (A) (A) (A) (A) (A) (A) (A) (A) (A) (A) (A)
                 (A) (A) (A) (A) (A) (A) (A) (A) (A) (A) (A) (A)
                 (A) (A) (A) (A) (A) (A) (A) (A) (A) (A) (A) (A)
                 (A) (A) (A) (A) (A) (A) (A) (A) (A) (A) (A) (A)
                 (A) (A) (A) (A) (A) (A) (A) (A) (A) (A) (A) (A)
                 (A) (A) (A) (A) (A) (A) (A) (A) (A) (A) (A) (A)
                 (A) (A) (A) (A) (A) (A) (A) (A) (A) (A) (A) (A)
                 (A) (A) (A) (A) (A) (A) (A) (A) (A) (A) (A)
 The electronic state of the initial guess is 1-A.
 Leave Link  401 at Sat Feb 23 07:54:56 2013, MaxMem= 2147483648 cpu:      68.2
 (Enter /home/ztw1e12/g09/l502.exe)
 Closed shell SCF:
 Requested convergence on RMS density matrix=1.00D-08 within 128 cycles.
 Requested convergence on MAX density matrix=1.00D-06.
 Requested convergence on             energy=1.00D-06.
 No special actions if energy rises.
 Using DIIS extrapolation, IDIIS=  1040.
 Integral symmetry usage will be decided dynamically.
       530682 words used for storage of precomputed grid.
 IEnd=     1517399 IEndB=     1517399 NGot=  2147483648 MDV=  2146302680
 LenX=  2146302680 LenY=  2145982890
 Fock matrices will be formed incrementally for  20 cycles.
 Integral accuracy reduced to 1.0D-05 until final iterations.

 Cycle   1  Pass 0  IDiag  1:
 FoFCou: FMM=F IPFlag=           0 FMFlag=      100000 FMFlg1=           0
         NFxFlg=           0 DoJE=F BraDBF=F KetDBF=F FulRan=T
         Omega=  0.000000  0.000000  1.000000  0.000000  0.000000 ICntrl=       0 IOpCl=  0
         NMat0=    1 NMatS0=    1 NMatT0=    0 NMatD0=    1 NMtDS0=    0 NMtDT0=    0
         I1Cent=           0 NGrid=           0.
 Symmetry not used in FoFCou.
 E= -570.501830685400    
 DIIS: error= 2.06D-02 at cycle   1 NSaved=   1.
 NSaved= 1 IEnMin= 1 EnMin= -570.501830685400     IErMin= 1 ErrMin= 2.06D-02
 ErrMax= 2.06D-02 EMaxC= 1.00D-01 BMatC= 3.90D-01 BMatP= 3.90D-01
 IDIUse=3 WtCom= 7.94D-01 WtEn= 2.06D-01
 Coeff-Com:  0.100D+01
 Coeff-En:   0.100D+01
 Coeff:      0.100D+01
 Gap=     0.145 Goal=   None    Shift=    0.000
 GapD=    0.145 DampG=1.000 DampE=0.500 DampFc=0.5000 IDamp=-1.
 Damping current iteration by 5.00D-01
 RMSDP=2.62D-03 MaxDP=1.77D-01              OVMax= 2.20D-01

 Cycle   2  Pass 0  IDiag  1:
 RMSU=  9.26D-04    CP:  1.00D+00
 E= -570.596130425842     Delta-E=       -0.094299740442 Rises=F Damp=T
 DIIS: error= 5.84D-03 at cycle   2 NSaved=   2.
 NSaved= 2 IEnMin= 2 EnMin= -570.596130425842     IErMin= 2 ErrMin= 5.84D-03
 ErrMax= 5.84D-03 EMaxC= 1.00D-01 BMatC= 5.40D-02 BMatP= 3.90D-01
 IDIUse=3 WtCom= 9.42D-01 WtEn= 5.84D-02
 Coeff-Com:  0.216D+00 0.784D+00
 Coeff-En:   0.327D+00 0.673D+00
 Coeff:      0.223D+00 0.777D+00
 Gap=     0.215 Goal=   None    Shift=    0.000
 RMSDP=6.57D-04 MaxDP=2.65D-02 DE=-9.43D-02 OVMax= 1.85D-01

 Cycle   3  Pass 0  IDiag  1:
 RMSU=  4.26D-04    CP:  1.00D+00  8.01D-01
 E= -570.783682362020     Delta-E=       -0.187551936178 Rises=F Damp=F
 DIIS: error= 6.57D-03 at cycle   3 NSaved=   3.
 NSaved= 3 IEnMin= 3 EnMin= -570.783682362020     IErMin= 2 ErrMin= 5.84D-03
 ErrMax= 6.57D-03 EMaxC= 1.00D-01 BMatC= 4.78D-02 BMatP= 5.40D-02
 IDIUse=3 WtCom= 9.34D-01 WtEn= 6.57D-02
 Coeff-Com:  0.799D-01 0.487D+00 0.433D+00
 Coeff-En:   0.000D+00 0.000D+00 0.100D+01
 Coeff:      0.746D-01 0.455D+00 0.470D+00
 Gap=     0.217 Goal=   None    Shift=    0.000
 RMSDP=3.51D-04 MaxDP=1.62D-02 DE=-1.88D-01 OVMax= 5.73D-02

 Cycle   4  Pass 0  IDiag  1:
 RMSU=  2.22D-04    CP:  1.00D+00  8.13D-01  7.39D-01
 E= -570.818667751086     Delta-E=       -0.034985389066 Rises=F Damp=F
 DIIS: error= 1.72D-03 at cycle   4 NSaved=   4.
 NSaved= 4 IEnMin= 4 EnMin= -570.818667751086     IErMin= 4 ErrMin= 1.72D-03
 ErrMax= 1.72D-03 EMaxC= 1.00D-01 BMatC= 4.89D-03 BMatP= 4.78D-02
 IDIUse=3 WtCom= 9.83D-01 WtEn= 1.72D-02
 Coeff-Com:  0.159D-01 0.113D+00 0.260D+00 0.611D+00
 Coeff-En:   0.000D+00 0.000D+00 0.766D-01 0.923D+00
 Coeff:      0.157D-01 0.111D+00 0.257D+00 0.616D+00
 Gap=     0.211 Goal=   None    Shift=    0.000
 RMSDP=1.07D-04 MaxDP=4.96D-03 DE=-3.50D-02 OVMax= 1.37D-02

 Cycle   5  Pass 0  IDiag  1:
 RMSU=  5.14D-05    CP:  1.00D+00  8.18D-01  8.11D-01  7.90D-01
 E= -570.821995223264     Delta-E=       -0.003327472178 Rises=F Damp=F
 DIIS: error= 4.70D-04 at cycle   5 NSaved=   5.
 NSaved= 5 IEnMin= 5 EnMin= -570.821995223264     IErMin= 5 ErrMin= 4.70D-04
 ErrMax= 4.70D-04 EMaxC= 1.00D-01 BMatC= 3.81D-04 BMatP= 4.89D-03
 IDIUse=3 WtCom= 9.95D-01 WtEn= 4.70D-03
 Coeff-Com:  0.289D-02 0.154D-01 0.949D-01 0.324D+00 0.562D+00
 Coeff-En:   0.000D+00 0.000D+00 0.000D+00 0.000D+00 0.100D+01
 Coeff:      0.288D-02 0.154D-01 0.944D-01 0.323D+00 0.565D+00
 Gap=     0.212 Goal=   None    Shift=    0.000
 RMSDP=3.28D-05 MaxDP=1.21D-03 DE=-3.33D-03 OVMax= 4.09D-03

 Cycle   6  Pass 0  IDiag  1:
 RMSU=  1.49D-05    CP:  1.00D+00  8.18D-01  8.12D-01  8.18D-01  6.76D-01
 E= -570.822264042591     Delta-E=       -0.000268819327 Rises=F Damp=F
 DIIS: error= 1.44D-04 at cycle   6 NSaved=   6.
 NSaved= 6 IEnMin= 6 EnMin= -570.822264042591     IErMin= 6 ErrMin= 1.44D-04
 ErrMax= 1.44D-04 EMaxC= 1.00D-01 BMatC= 3.58D-05 BMatP= 3.81D-04
 IDIUse=3 WtCom= 9.99D-01 WtEn= 1.44D-03
 Coeff-Com:  0.288D-03-0.307D-02 0.223D-01 0.974D-01 0.287D+00 0.596D+00
 Coeff-En:   0.000D+00 0.000D+00 0.000D+00 0.000D+00 0.000D+00 0.100D+01
 Coeff:      0.287D-03-0.306D-02 0.223D-01 0.973D-01 0.287D+00 0.597D+00
 Gap=     0.212 Goal=   None    Shift=    0.000
 RMSDP=1.09D-05 MaxDP=3.97D-04 DE=-2.69D-04 OVMax= 1.66D-03

 Cycle   7  Pass 0  IDiag  1:
 RMSU=  6.51D-06    CP:  1.00D+00  8.19D-01  8.16D-01  8.23D-01  7.13D-01
                    CP:  8.13D-01
 E= -570.822284242549     Delta-E=       -0.000020199958 Rises=F Damp=F
 DIIS: error= 1.04D-04 at cycle   7 NSaved=   7.
 NSaved= 7 IEnMin= 7 EnMin= -570.822284242549     IErMin= 7 ErrMin= 1.04D-04
 ErrMax= 1.04D-04 EMaxC= 1.00D-01 BMatC= 1.01D-05 BMatP= 3.58D-05
 IDIUse=3 WtCom= 9.99D-01 WtEn= 1.04D-03
 Coeff-Com: -0.171D-04-0.375D-02 0.553D-02 0.328D-01 0.140D+00 0.405D+00
 Coeff-Com:  0.421D+00
 Coeff-En:   0.000D+00 0.000D+00 0.000D+00 0.000D+00 0.000D+00 0.191D+00
 Coeff-En:   0.809D+00
 Coeff:     -0.171D-04-0.375D-02 0.553D-02 0.328D-01 0.140D+00 0.405D+00
 Coeff:      0.421D+00
 Gap=     0.212 Goal=   None    Shift=    0.000
 RMSDP=5.11D-06 MaxDP=2.24D-04 DE=-2.02D-05 OVMax= 7.15D-04

 Initial convergence to 1.0D-05 achieved.  Increase integral accuracy.
 Cycle   8  Pass 1  IDiag  1:
 E= -570.822275611923     Delta-E=        0.000008630626 Rises=F Damp=F
 DIIS: error= 3.69D-05 at cycle   1 NSaved=   1.
 NSaved= 1 IEnMin= 1 EnMin= -570.822275611923     IErMin= 1 ErrMin= 3.69D-05
 ErrMax= 3.69D-05 EMaxC= 1.00D-01 BMatC= 2.28D-06 BMatP= 2.28D-06
 IDIUse=1 WtCom= 1.00D+00 WtEn= 0.00D+00
 Coeff-Com:  0.100D+01
 Coeff:      0.100D+01
 Gap=     0.212 Goal=   None    Shift=    0.000
 RMSDP=5.11D-06 MaxDP=2.24D-04 DE= 8.63D-06 OVMax= 3.64D-04

 Cycle   9  Pass 1  IDiag  1:
 RMSU=  1.04D-05    CP:  1.00D+00
 E= -570.822276495319     Delta-E=       -0.000000883396 Rises=F Damp=F
 DIIS: error= 4.16D-05 at cycle   2 NSaved=   2.
 NSaved= 2 IEnMin= 2 EnMin= -570.822276495319     IErMin= 1 ErrMin= 3.69D-05
 ErrMax= 4.16D-05 EMaxC= 1.00D-01 BMatC= 1.49D-06 BMatP= 2.28D-06
 IDIUse=1 WtCom= 1.00D+00 WtEn= 0.00D+00
 Coeff-Com:  0.422D+00 0.578D+00
 Coeff:      0.422D+00 0.578D+00
 Gap=     0.212 Goal=   None    Shift=    0.000
 RMSDP=2.67D-06 MaxDP=1.31D-04 DE=-8.83D-07 OVMax= 4.08D-04

 Cycle  10  Pass 1  IDiag  1:
 RMSU=  1.89D-06    CP:  1.00D+00  1.01D+00
 E= -570.822276807949     Delta-E=       -0.000000312630 Rises=F Damp=F
 DIIS: error= 3.45D-05 at cycle   3 NSaved=   3.
 NSaved= 3 IEnMin= 3 EnMin= -570.822276807949     IErMin= 3 ErrMin= 3.45D-05
 ErrMax= 3.45D-05 EMaxC= 1.00D-01 BMatC= 1.06D-06 BMatP= 1.49D-06
 IDIUse=1 WtCom= 1.00D+00 WtEn= 0.00D+00
 Coeff-Com:  0.304D-02 0.456D+00 0.541D+00
 Coeff:      0.304D-02 0.456D+00 0.541D+00
 Gap=     0.212 Goal=   None    Shift=    0.000
 RMSDP=1.45D-06 MaxDP=6.20D-05 DE=-3.13D-07 OVMax= 2.19D-04

 Cycle  11  Pass 1  IDiag  1:
 RMSU=  5.15D-07    CP:  1.00D+00  1.05D+00  5.88D-01
 E= -570.822277557132     Delta-E=       -0.000000749183 Rises=F Damp=F
 DIIS: error= 5.05D-06 at cycle   4 NSaved=   4.
 NSaved= 4 IEnMin= 4 EnMin= -570.822277557132     IErMin= 4 ErrMin= 5.05D-06
 ErrMax= 5.05D-06 EMaxC= 1.00D-01 BMatC= 2.88D-08 BMatP= 1.06D-06
 IDIUse=1 WtCom= 1.00D+00 WtEn= 0.00D+00
 Coeff-Com: -0.153D-01 0.222D+00 0.293D+00 0.500D+00
 Coeff:     -0.153D-01 0.222D+00 0.293D+00 0.500D+00
 Gap=     0.212 Goal=   None    Shift=    0.000
 RMSDP=2.56D-07 MaxDP=1.24D-05 DE=-7.49D-07 OVMax= 2.68D-05

 Cycle  12  Pass 1  IDiag  1:
 RMSU=  1.58D-07    CP:  1.00D+00  1.06D+00  6.13D-01  8.71D-01
 E= -570.822277579295     Delta-E=       -0.000000022162 Rises=F Damp=F
 DIIS: error= 8.62D-07 at cycle   5 NSaved=   5.
 NSaved= 5 IEnMin= 5 EnMin= -570.822277579295     IErMin= 5 ErrMin= 8.62D-07
 ErrMax= 8.62D-07 EMaxC= 1.00D-01 BMatC= 1.25D-09 BMatP= 2.88D-08
 IDIUse=1 WtCom= 1.00D+00 WtEn= 0.00D+00
 Coeff-Com: -0.660D-02 0.524D-01 0.748D-01 0.216D+00 0.663D+00
 Coeff:     -0.660D-02 0.524D-01 0.748D-01 0.216D+00 0.663D+00
 Gap=     0.212 Goal=   None    Shift=    0.000
 RMSDP=8.35D-08 MaxDP=3.56D-06 DE=-2.22D-08 OVMax= 6.47D-06

 Cycle  13  Pass 1  IDiag  1:
 RMSU=  4.54D-08    CP:  1.00D+00  1.06D+00  6.22D-01  9.29D-01  9.67D-01
 E= -570.822277580100     Delta-E=       -0.000000000806 Rises=F Damp=F
 DIIS: error= 4.10D-07 at cycle   6 NSaved=   6.
 NSaved= 6 IEnMin= 6 EnMin= -570.822277580100     IErMin= 6 ErrMin= 4.10D-07
 ErrMax= 4.10D-07 EMaxC= 1.00D-01 BMatC= 2.42D-10 BMatP= 1.25D-09
 IDIUse=1 WtCom= 1.00D+00 WtEn= 0.00D+00
 Coeff-Com: -0.195D-02 0.617D-02 0.101D-01 0.665D-01 0.355D+00 0.564D+00
 Coeff:     -0.195D-02 0.617D-02 0.101D-01 0.665D-01 0.355D+00 0.564D+00
 Gap=     0.212 Goal=   None    Shift=    0.000
 RMSDP=3.13D-08 MaxDP=1.59D-06 DE=-8.06D-10 OVMax= 4.74D-06

 Cycle  14  Pass 1  IDiag  1:
 RMSU=  1.52D-08    CP:  1.00D+00  1.06D+00  6.21D-01  9.44D-01  9.96D-01
                    CP:  7.46D-01
 E= -570.822277580235     Delta-E=       -0.000000000135 Rises=F Damp=F
 DIIS: error= 2.46D-07 at cycle   7 NSaved=   7.
 NSaved= 7 IEnMin= 7 EnMin= -570.822277580235     IErMin= 7 ErrMin= 2.46D-07
 ErrMax= 2.46D-07 EMaxC= 1.00D-01 BMatC= 6.09D-11 BMatP= 2.42D-10
 IDIUse=1 WtCom= 1.00D+00 WtEn= 0.00D+00
 Coeff-Com: -0.166D-03-0.473D-02-0.627D-02 0.703D-02 0.119D+00 0.372D+00
 Coeff-Com:  0.513D+00
 Coeff:     -0.166D-03-0.473D-02-0.627D-02 0.703D-02 0.119D+00 0.372D+00
 Coeff:      0.513D+00
 Gap=     0.212 Goal=   None    Shift=    0.000
 RMSDP=1.34D-08 MaxDP=6.67D-07 DE=-1.35D-10 OVMax= 1.89D-06

 Cycle  15  Pass 1  IDiag  1:
 RMSU=  5.80D-09    CP:  1.00D+00  1.06D+00  6.21D-01  9.50D-01  1.01D+00
                    CP:  7.92D-01  6.35D-01
 E= -570.822277580286     Delta-E=       -0.000000000051 Rises=F Damp=F
 DIIS: error= 7.07D-08 at cycle   8 NSaved=   8.
 NSaved= 8 IEnMin= 8 EnMin= -570.822277580286     IErMin= 8 ErrMin= 7.07D-08
 ErrMax= 7.07D-08 EMaxC= 1.00D-01 BMatC= 5.47D-12 BMatP= 6.09D-11
 IDIUse=1 WtCom= 1.00D+00 WtEn= 0.00D+00
 Coeff-Com:  0.126D-03-0.348D-02-0.484D-02-0.332D-02 0.294D-01 0.157D+00
 Coeff-Com:  0.298D+00 0.527D+00
 Coeff:      0.126D-03-0.348D-02-0.484D-02-0.332D-02 0.294D-01 0.157D+00
 Coeff:      0.298D+00 0.527D+00
 Gap=     0.212 Goal=   None    Shift=    0.000
 RMSDP=4.24D-09 MaxDP=2.46D-07 DE=-5.14D-11 OVMax= 4.51D-07

 SCF Done:  E(RM06) =  -570.822277580     A.U. after   15 cycles
             Convg  =    0.4240D-08             -V/T =  2.0076
 KE= 5.665108720225D+02 PE=-2.666237441120D+03 EE= 8.632361960683D+02
 Leave Link  502 at Sat Feb 23 08:02:13 2013, MaxMem= 2147483648 cpu:    5251.2
 (Enter /home/ztw1e12/g09/l601.exe)
 Copying SCF densities to generalized density rwf, IOpCl= 0 IROHF=0.

 **********************************************************************

            Population analysis using the SCF density.

 **********************************************************************

 Orbital symmetries:
       Occupied  (A) (A) (A) (A) (A) (A) (A) (A) (A) (A) (A) (A)
                 (A) (A) (A) (A) (A) (A) (A) (A) (A) (A) (A) (A)
                 (A) (A) (A) (A) (A) (A) (A) (A) (A) (A) (A) (A)
                 (A) (A) (A) (A) (A) (A) (A)
       Virtual   (A) (A) (A) (A) (A) (A) (A) (A) (A) (A) (A) (A)
                 (A) (A) (A) (A) (A) (A) (A) (A) (A) (A) (A) (A)
                 (A) (A) (A) (A) (A) (A) (A) (A) (A) (A) (A) (A)
                 (A) (A) (A) (A) (A) (A) (A) (A) (A) (A) (A) (A)
                 (A) (A) (A) (A) (A) (A) (A) (A) (A) (A) (A) (A)
                 (A) (A) (A) (A) (A) (A) (A) (A) (A) (A) (A) (A)
                 (A) (A) (A) (A) (A) (A) (A) (A) (A) (A) (A) (A)
                 (A) (A) (A) (A) (A) (A) (A) (A) (A) (A) (A) (A)
                 (A) (A) (A) (A) (A) (A) (A) (A) (A) (A) (A) (A)
                 (A) (A) (A) (A) (A) (A) (A) (A) (A) (A) (A) (A)
                 (A) (A) (A) (A) (A) (A) (A) (A) (A) (A) (A) (A)
                 (A) (A) (A) (A) (A) (A) (A) (A) (A) (A) (A) (A)
                 (A) (A) (A) (A) (A) (A) (A) (A) (A) (A) (A) (A)
                 (A) (A) (A) (A) (A) (A) (A) (A) (A) (A) (A) (A)
                 (A) (A) (A) (A) (A) (A) (A) (A) (A) (A) (A) (A)
                 (A) (A) (A) (A) (A) (A) (A) (A) (A) (A) (A) (A)
                 (A) (A) (A) (A) (A) (A) (A) (A) (A) (A) (A) (A)
                 (A) (A) (A) (A) (A) (A) (A) (A) (A) (A) (A) (A)
                 (A) (A) (A) (A) (A) (A) (A) (A) (A) (A) (A) (A)
                 (A) (A) (A) (A) (A) (A) (A) (A) (A) (A) (A) (A)
                 (A) (A) (A) (A) (A) (A) (A) (A) (A) (A) (A) (A)
                 (A) (A) (A) (A) (A) (A) (A) (A) (A) (A) (A) (A)
                 (A) (A) (A) (A) (A) (A) (A) (A) (A) (A) (A) (A)
                 (A) (A) (A) (A) (A) (A) (A) (A) (A) (A) (A) (A)
                 (A) (A) (A) (A) (A) (A) (A) (A) (A) (A) (A) (A)
                 (A) (A) (A) (A) (A) (A) (A) (A) (A) (A) (A) (A)
                 (A) (A) (A) (A) (A) (A) (A) (A) (A) (A) (A) (A)
                 (A) (A) (A) (A) (A) (A) (A) (A) (A) (A) (A) (A)
                 (A) (A) (A) (A) (A) (A) (A) (A) (A) (A) (A) (A)
                 (A) (A) (A) (A) (A) (A) (A) (A) (A) (A) (A) (A)
                 (A) (A) (A) (A) (A) (A) (A) (A) (A) (A) (A) (A)
                 (A) (A) (A) (A) (A) (A) (A) (A) (A) (A) (A) (A)
                 (A) (A) (A) (A) (A) (A) (A) (A) (A) (A) (A) (A)
                 (A) (A) (A) (A) (A) (A) (A) (A) (A) (A) (A) (A)
                 (A) (A) (A) (A) (A) (A) (A) (A) (A) (A) (A) (A)
                 (A) (A) (A) (A) (A) (A) (A) (A) (A) (A) (A) (A)
                 (A) (A) (A) (A) (A) (A) (A) (A) (A) (A) (A) (A)
                 (A) (A) (A) (A) (A) (A) (A) (A) (A) (A) (A)
 The electronic state is 1-A.
 Alpha  occ. eigenvalues --  -19.22280 -19.21929 -19.20399 -14.41425 -14.40257
 Alpha  occ. eigenvalues --  -10.37474 -10.36224 -10.30968 -10.30936 -10.26061
 Alpha  occ. eigenvalues --  -10.22284  -1.06969  -1.05352  -1.04661  -0.93054
 Alpha  occ. eigenvalues --   -0.92849  -0.78305  -0.74122  -0.71034  -0.66387
 Alpha  occ. eigenvalues --   -0.59699  -0.57338  -0.55785  -0.51040  -0.50672
 Alpha  occ. eigenvalues --   -0.49506  -0.49084  -0.46479  -0.45806  -0.45502
 Alpha  occ. eigenvalues --   -0.43320  -0.43122  -0.42015  -0.41300  -0.40481
 Alpha  occ. eigenvalues --   -0.37228  -0.36864  -0.34471  -0.30815  -0.29779
 Alpha  occ. eigenvalues --   -0.29195  -0.27620  -0.25958
 Alpha virt. eigenvalues --   -0.04738  -0.01384   0.01502   0.02744   0.04760
 Alpha virt. eigenvalues --    0.06092   0.06885   0.07728   0.09426   0.10080
 Alpha virt. eigenvalues --    0.10333   0.11653   0.11924   0.14409   0.14969
 Alpha virt. eigenvalues --    0.17004   0.17474   0.18637   0.19136   0.21602
 Alpha virt. eigenvalues --    0.22168   0.24385   0.26247   0.26342   0.27183
 Alpha virt. eigenvalues --    0.27372   0.28945   0.29675   0.32505   0.33270
 Alpha virt. eigenvalues --    0.33669   0.34098   0.35974   0.36675   0.37085
 Alpha virt. eigenvalues --    0.37945   0.38445   0.39201   0.40122   0.40589
 Alpha virt. eigenvalues --    0.40755   0.40933   0.42024   0.43316   0.43990
 Alpha virt. eigenvalues --    0.44098   0.44956   0.45589   0.45761   0.46651
 Alpha virt. eigenvalues --    0.47585   0.48938   0.49314   0.49493   0.50513
 Alpha virt. eigenvalues --    0.51600   0.52126   0.54937   0.55141   0.56512
 Alpha virt. eigenvalues --    0.57039   0.57740   0.59327   0.61028   0.63255
 Alpha virt. eigenvalues --    0.65255   0.66785   0.67123   0.68615   0.69765
 Alpha virt. eigenvalues --    0.70284   0.71430   0.73733   0.74217   0.75269
 Alpha virt. eigenvalues --    0.76243   0.78998   0.81931   0.83740   0.84232
 Alpha virt. eigenvalues --    0.85018   0.86693   0.86995   0.88945   0.90200
 Alpha virt. eigenvalues --    0.90722   0.91882   0.92832   0.94139   0.95001
 Alpha virt. eigenvalues --    0.95629   0.97375   0.98382   0.98496   0.98856
 Alpha virt. eigenvalues --    1.00212   1.01334   1.01878   1.02666   1.03751
 Alpha virt. eigenvalues --    1.04865   1.06956   1.07491   1.09831   1.10266
 Alpha virt. eigenvalues --    1.11135   1.12947   1.14025   1.14458   1.16640
 Alpha virt. eigenvalues --    1.17899   1.18690   1.20426   1.20860   1.21186
 Alpha virt. eigenvalues --    1.21752   1.22727   1.23624   1.25442   1.25991
 Alpha virt. eigenvalues --    1.26498   1.27796   1.28338   1.30138   1.30997
 Alpha virt. eigenvalues --    1.32168   1.32949   1.33331   1.34915   1.36499
 Alpha virt. eigenvalues --    1.37974   1.39925   1.41301   1.43489   1.44461
 Alpha virt. eigenvalues --    1.45445   1.47832   1.48941   1.49938   1.51669
 Alpha virt. eigenvalues --    1.52166   1.55294   1.57054   1.59146   1.62608
 Alpha virt. eigenvalues --    1.63027   1.64520   1.67978   1.69768   1.70530
 Alpha virt. eigenvalues --    1.75268   1.75662   1.76779   1.81590   1.83013
 Alpha virt. eigenvalues --    1.86679   1.87659   1.90382   1.92093   1.95584
 Alpha virt. eigenvalues --    1.96935   1.99803   2.02599   2.05563   2.08948
 Alpha virt. eigenvalues --    2.10934   2.11485   2.15348   2.16526   2.17640
 Alpha virt. eigenvalues --    2.19667   2.20991   2.24359   2.26438   2.28502
 Alpha virt. eigenvalues --    2.28792   2.32630   2.33135   2.37402   2.38655
 Alpha virt. eigenvalues --    2.39348   2.41123   2.42159   2.45028   2.45825
 Alpha virt. eigenvalues --    2.47797   2.49176   2.51091   2.53044   2.54270
 Alpha virt. eigenvalues --    2.55752   2.56506   2.58430   2.60907   2.62455
 Alpha virt. eigenvalues --    2.65677   2.66507   2.68430   2.70082   2.70555
 Alpha virt. eigenvalues --    2.71595   2.72191   2.73873   2.75821   2.76477
 Alpha virt. eigenvalues --    2.77751   2.79219   2.81785   2.83093   2.84213
 Alpha virt. eigenvalues --    2.85433   2.87165   2.87443   2.89359   2.89578
 Alpha virt. eigenvalues --    2.90640   2.93207   2.93805   2.94662   2.96388
 Alpha virt. eigenvalues --    2.96575   2.97867   2.99058   2.99824   3.00140
 Alpha virt. eigenvalues --    3.00849   3.01581   3.02641   3.04592   3.04952
 Alpha virt. eigenvalues --    3.06111   3.06591   3.08575   3.09860   3.11722
 Alpha virt. eigenvalues --    3.12967   3.14639   3.15147   3.17322   3.17669
 Alpha virt. eigenvalues --    3.19050   3.20317   3.22359   3.24039   3.24840
 Alpha virt. eigenvalues --    3.27919   3.28736   3.29295   3.30744   3.31408
 Alpha virt. eigenvalues --    3.32900   3.34480   3.35177   3.35613   3.36701
 Alpha virt. eigenvalues --    3.38382   3.39109   3.40485   3.40818   3.42350
 Alpha virt. eigenvalues --    3.44139   3.44978   3.46065   3.46096   3.47926
 Alpha virt. eigenvalues --    3.48250   3.49133   3.49845   3.51546   3.52925
 Alpha virt. eigenvalues --    3.53173   3.55009   3.57137   3.58252   3.61055
 Alpha virt. eigenvalues --    3.62553   3.62867   3.64688   3.66290   3.67572
 Alpha virt. eigenvalues --    3.69252   3.70181   3.70485   3.73238   3.74999
 Alpha virt. eigenvalues --    3.75558   3.76814   3.78258   3.79630   3.79920
 Alpha virt. eigenvalues --    3.80291   3.82535   3.83422   3.84066   3.85228
 Alpha virt. eigenvalues --    3.85667   3.87165   3.88401   3.90015   3.91050
 Alpha virt. eigenvalues --    3.92783   3.95153   3.95319   3.96788   3.98856
 Alpha virt. eigenvalues --    3.99580   4.02491   4.03486   4.04748   4.05059
 Alpha virt. eigenvalues --    4.08672   4.09280   4.10135   4.11413   4.12578
 Alpha virt. eigenvalues --    4.13339   4.13783   4.15235   4.17120   4.18072
 Alpha virt. eigenvalues --    4.19703   4.20171   4.23307   4.24443   4.26004
 Alpha virt. eigenvalues --    4.26599   4.28034   4.30150   4.31073   4.31389
 Alpha virt. eigenvalues --    4.32583   4.35077   4.37377   4.37802   4.39118
 Alpha virt. eigenvalues --    4.41335   4.44042   4.44421   4.48051   4.49448
 Alpha virt. eigenvalues --    4.53247   4.55003   4.57101   4.60172   4.64256
 Alpha virt. eigenvalues --    4.66384   4.68470   4.71069   4.73337   4.74133
 Alpha virt. eigenvalues --    4.76361   4.78722   4.79785   4.80627   4.81504
 Alpha virt. eigenvalues --    4.83537   4.83686   4.87698   4.88135   4.90968
 Alpha virt. eigenvalues --    4.91701   4.97315   4.97889   4.99751   5.01099
 Alpha virt. eigenvalues --    5.02409   5.03741   5.06935   5.07914   5.08617
 Alpha virt. eigenvalues --    5.09581   5.10143   5.11197   5.14149   5.14815
 Alpha virt. eigenvalues --    5.16990   5.18096   5.18713   5.18986   5.19472
 Alpha virt. eigenvalues --    5.20669   5.22523   5.23287   5.23972   5.26964
 Alpha virt. eigenvalues --    5.27867   5.30274   5.30789   5.33634   5.35119
 Alpha virt. eigenvalues --    5.37864   5.38415   5.44689   5.46024   5.50922
 Alpha virt. eigenvalues --    5.51402   5.52666   5.55665   5.58401   5.63028
 Alpha virt. eigenvalues --    5.64897   5.65935   5.70177   5.71497   5.73683
 Alpha virt. eigenvalues --    5.74667   5.76954   5.78831   5.81094   5.82795
 Alpha virt. eigenvalues --    5.83079   5.87062   5.88827   5.91139   5.92971
 Alpha virt. eigenvalues --    5.93828   5.97290   6.08678   6.10849   6.13981
 Alpha virt. eigenvalues --    6.16221   6.26043   6.44751   6.46299   6.46933
 Alpha virt. eigenvalues --    6.51900   6.53566   6.54339   6.54675   6.58740
 Alpha virt. eigenvalues --    6.66560   6.68226   6.77288   6.81220   6.86984
 Alpha virt. eigenvalues --    6.94100   6.99048   7.01695   7.04071   7.05545
 Alpha virt. eigenvalues --    7.09167   7.17684   7.23444   7.43576   8.90660
 Alpha virt. eigenvalues --    9.16102  11.42792  11.64592  11.90832  12.16508
 Alpha virt. eigenvalues --   12.37080  12.67124  12.91482  13.61751  13.70509
          Condensed to atoms (all electrons):
              1          2          3          4          5          6
     1  C    4.876209   0.190463  -0.063208  -0.040563   0.007135  -0.015986
     2  C    0.190463   5.332169   0.434256   0.237815  -0.043866  -0.035026
     3  H   -0.063208   0.434256   0.459398  -0.023190  -0.003909   0.000831
     4  C   -0.040563   0.237815  -0.023190   4.823546   0.426066   0.396170
     5  H    0.007135  -0.043866  -0.003909   0.426066   0.609347  -0.055134
     6  H   -0.015986  -0.035026   0.000831   0.396170  -0.055134   0.622674
     7  O    0.013059  -0.068551   0.001647   0.315657  -0.043564  -0.046690
     8  H   -0.000468   0.011415  -0.000204  -0.024136  -0.005572  -0.006522
     9  N   -0.049915   0.231949  -0.045924  -0.034707  -0.010952   0.008135
    10  H    0.011177  -0.017559  -0.003387  -0.009501   0.003488   0.000035
    11  O    0.580635  -0.070100   0.002919  -0.000964  -0.000572   0.000577
    12  N    0.335417  -0.059748   0.009585  -0.004614  -0.000137   0.010045
    13  H   -0.012705   0.005547  -0.000531   0.000190  -0.000016  -0.000129
    14  C   -0.054887   0.006896  -0.000041  -0.001068   0.000012   0.000215
    15  H    0.006328  -0.000063  -0.000062   0.000017  -0.000001  -0.000060
    16  H   -0.014614   0.001503   0.000116  -0.000322   0.000006   0.000259
    17  H    0.002268  -0.001410  -0.000138   0.001175   0.000087  -0.001551
    18  C   -0.002697  -0.031187   0.002711  -0.001343  -0.001070   0.000324
    19  C   -0.001551  -0.018290   0.001983  -0.000588  -0.000099   0.000018
    20  H   -0.008752   0.002156  -0.001430   0.000132   0.000000   0.000025
    21  H    0.000071   0.000453   0.000170   0.000056  -0.000003  -0.000004
    22  H    0.000135   0.001152  -0.000004   0.000037   0.000005  -0.000002
    23  O   -0.004806   0.003249   0.012076  -0.000307  -0.000020   0.000013
              7          8          9         10         11         12
     1  C    0.013059  -0.000468  -0.049915   0.011177   0.580635   0.335417
     2  C   -0.068551   0.011415   0.231949  -0.017559  -0.070100  -0.059748
     3  H    0.001647  -0.000204  -0.045924  -0.003387   0.002919   0.009585
     4  C    0.315657  -0.024136  -0.034707  -0.009501  -0.000964  -0.004614
     5  H   -0.043564  -0.005572  -0.010952   0.003488  -0.000572  -0.000137
     6  H   -0.046690  -0.006522   0.008135   0.000035   0.000577   0.010045
     7  O    7.801352   0.334657   0.004079   0.000402  -0.002535   0.000010
     8  H    0.334657   0.518725  -0.000041  -0.000174   0.000194  -0.000055
     9  N    0.004079  -0.000041   6.647786   0.337925   0.007524   0.002464
    10  H    0.000402  -0.000174   0.337925   0.572148  -0.000276  -0.000255
    11  O   -0.002535   0.000194   0.007524  -0.000276   7.911208  -0.095126
    12  N    0.000010  -0.000055   0.002464  -0.000255  -0.095126   6.474118
    13  H   -0.000036   0.000003  -0.000275   0.000006  -0.000656   0.374124
    14  C   -0.000474   0.000004  -0.000167   0.000025  -0.009600   0.273555
    15  H   -0.000003   0.000001   0.000005   0.000000   0.001115  -0.023951
    16  H   -0.000004  -0.000008   0.000045   0.000001   0.018007  -0.054949
    17  H    0.001363   0.000023  -0.000086   0.000003  -0.001608  -0.034374
    18  C    0.000255   0.000010   0.273729  -0.004503  -0.005225  -0.000979
    19  C    0.000007   0.000002  -0.076790   0.009208  -0.036437  -0.000182
    20  H   -0.000107   0.000005   0.002292  -0.000213   0.023105  -0.000603
    21  H    0.000001   0.000000   0.005256  -0.000458   0.001076   0.000632
    22  H    0.000002   0.000000   0.001435  -0.000431   0.000446  -0.000013
    23  O   -0.000001   0.000000  -0.114731   0.005895   0.000051   0.000026
             13         14         15         16         17         18
     1  C   -0.012705  -0.054887   0.006328  -0.014614   0.002268  -0.002697
     2  C    0.005547   0.006896  -0.000063   0.001503  -0.001410  -0.031187
     3  H   -0.000531  -0.000041  -0.000062   0.000116  -0.000138   0.002711
     4  C    0.000190  -0.001068   0.000017  -0.000322   0.001175  -0.001343
     5  H   -0.000016   0.000012  -0.000001   0.000006   0.000087  -0.001070
     6  H   -0.000129   0.000215  -0.000060   0.000259  -0.001551   0.000324
     7  O   -0.000036  -0.000474  -0.000003  -0.000004   0.001363   0.000255
     8  H    0.000003   0.000004   0.000001  -0.000008   0.000023   0.000010
     9  N   -0.000275  -0.000167   0.000005   0.000045  -0.000086   0.273729
    10  H    0.000006   0.000025   0.000000   0.000001   0.000003  -0.004503
    11  O   -0.000656  -0.009600   0.001115   0.018007  -0.001608  -0.005225
    12  N    0.374124   0.273555  -0.023951  -0.054949  -0.034374  -0.000979
    13  H    0.564907  -0.029639  -0.004376  -0.008049   0.006765   0.000154
    14  C   -0.029639   4.809964   0.400034   0.407514   0.394251  -0.000045
    15  H   -0.004376   0.400034   0.578926  -0.034757  -0.020467  -0.000003
    16  H   -0.008049   0.407514  -0.034757   0.615352  -0.048233   0.000120
    17  H    0.006765   0.394251  -0.020467  -0.048233   0.589593  -0.000033
    18  C    0.000154  -0.000045  -0.000003   0.000120  -0.000033   4.609303
    19  C    0.000716  -0.000061   0.000017  -0.000350   0.000044   0.268359
    20  H    0.000007   0.000453   0.000038   0.000507  -0.000060  -0.022765
    21  H   -0.000013  -0.000017  -0.000003  -0.000098   0.000000  -0.044666
    22  H   -0.000003  -0.000011   0.000000   0.000000   0.000001  -0.014379
    23  O    0.000097  -0.000005   0.000000  -0.000001   0.000000   0.704667
             19         20         21         22         23
     1  C   -0.001551  -0.008752   0.000071   0.000135  -0.004806
     2  C   -0.018290   0.002156   0.000453   0.001152   0.003249
     3  H    0.001983  -0.001430   0.000170  -0.000004   0.012076
     4  C   -0.000588   0.000132   0.000056   0.000037  -0.000307
     5  H   -0.000099   0.000000  -0.000003   0.000005  -0.000020
     6  H    0.000018   0.000025  -0.000004  -0.000002   0.000013
     7  O    0.000007  -0.000107   0.000001   0.000002  -0.000001
     8  H    0.000002   0.000005   0.000000   0.000000   0.000000
     9  N   -0.076790   0.002292   0.005256   0.001435  -0.114731
    10  H    0.009208  -0.000213  -0.000458  -0.000431   0.005895
    11  O   -0.036437   0.023105   0.001076   0.000446   0.000051
    12  N   -0.000182  -0.000603   0.000632  -0.000013   0.000026
    13  H    0.000716   0.000007  -0.000013  -0.000003   0.000097
    14  C   -0.000061   0.000453  -0.000017  -0.000011  -0.000005
    15  H    0.000017   0.000038  -0.000003   0.000000   0.000000
    16  H   -0.000350   0.000507  -0.000098   0.000000  -0.000001
    17  H    0.000044  -0.000060   0.000000   0.000001   0.000000
    18  C    0.268359  -0.022765  -0.044666  -0.014379   0.704667
    19  C    5.132396   0.385026   0.392501   0.375061  -0.091152
    20  H    0.385026   0.485403  -0.031586  -0.015117   0.002657
    21  H    0.392501  -0.031586   0.572528  -0.018393   0.005507
    22  H    0.375061  -0.015117  -0.018393   0.555653  -0.000232
    23  O   -0.091152   0.002657   0.005507  -0.000232   7.823187
 Mulliken atomic charges:
              1
     1  C    0.247257
     2  C   -0.113223
     3  H    0.216339
     4  C   -0.059558
     5  H    0.118772
     6  H    0.121784
     7  O   -0.310525
     8  H    0.172142
     9  N   -0.189035
    10  H    0.096445
    11  O   -0.323755
    12  N   -0.204990
    13  H    0.103913
    14  C   -0.196910
    15  H    0.097267
    16  H    0.117955
    17  H    0.112390
    18  C    0.269262
    19  C   -0.339836
    20  H    0.178829
    21  H    0.116991
    22  H    0.114658
    23  O   -0.346169
 Sum of Mulliken atomic charges =   0.00000
 Mulliken charges with hydrogens summed into heavy atoms:
              1
     1  C    0.247257
     2  C    0.103116
     4  C    0.180997
     7  O   -0.138383
     9  N   -0.092590
    11  O   -0.323755
    12  N   -0.101077
    14  C    0.130701
    18  C    0.269262
    19  C    0.070641
    23  O   -0.346169
 Sum of Mulliken charges with hydrogens summed into heavy atoms =   0.00000
 Electronic spatial extent (au):  <R**2>=           1903.5927
 Charge=              0.0000 electrons
 Dipole moment (field-independent basis, Debye):
    X=             -3.1044    Y=              1.1807    Z=             -1.3813  Tot=              3.5971
 Quadrupole moment (field-independent basis, Debye-Ang):
   XX=            -69.4591   YY=            -51.5519   ZZ=            -70.9648
   XY=             -0.1058   XZ=              5.8216   YZ=             -1.2625
 Traceless Quadrupole moment (field-independent basis, Debye-Ang):
   XX=             -5.4672   YY=             12.4400   ZZ=             -6.9729
   XY=             -0.1058   XZ=              5.8216   YZ=             -1.2625
 Octapole moment (field-independent basis, Debye-Ang**2):
  XXX=            -44.1215  YYY=             30.5746  ZZZ=              3.4628  XYY=            -17.4913
  XXY=             12.3870  XXZ=             25.2901  XZZ=             -0.0160  YZZ=              0.8717
  YYZ=             -4.6051  XYZ=            -10.1872
 Hexadecapole moment (field-independent basis, Debye-Ang**3):
 XXXX=          -1328.2840 YYYY=           -690.5761 ZZZZ=           -307.8210 XXXY=             19.2736
 XXXZ=             42.3546 YYYX=            -46.8468 YYYZ=             36.8125 ZZZX=             -6.5694
 ZZZY=             10.4488 XXYY=           -294.8575 XXZZ=           -279.1070 YYZZ=           -179.2828
 XXYZ=              0.8255 YYXZ=            -10.6744 ZZXY=             -7.6165
 N-N= 6.656680954492D+02 E-N=-2.666237432141D+03  KE= 5.665108720225D+02
 No NMR shielding tensors so no spin-rotation constants.
 Leave Link  601 at Sat Feb 23 08:02:14 2013, MaxMem= 2147483648 cpu:       7.4
 (Enter /home/ztw1e12/g09/l701.exe)
 Compute integral first derivatives.
 ... and contract with generalized density number  0.
 Leave Link  701 at Sat Feb 23 08:02:15 2013, MaxMem= 2147483648 cpu:       5.6
 (Enter /home/ztw1e12/g09/l702.exe)
 L702 exits ... SP integral derivatives will be done elsewhere.
 Leave Link  702 at Sat Feb 23 08:02:15 2013, MaxMem= 2147483648 cpu:       0.3
 (Enter /home/ztw1e12/g09/l703.exe)
 Compute integral first derivatives, UseDBF=F ICtDFT=           0.
 Integral derivatives from FoFDir, PRISM(SPDF).
 Calling FoFJK, ICntrl=      2127 FMM=F ISym2X=0 I1Cent= 0 IOpClX= 0 NMat=1 NMatS=1 NMatT=0.
 FoFCou: FMM=F IPFlag=           0 FMFlag=      100000 FMFlg1=         800
         NFxFlg=           0 DoJE=F BraDBF=F KetDBF=F FulRan=T
         Omega=  0.000000  0.000000  1.000000  0.000000  0.000000 ICntrl=    2127 IOpCl=  0
         NMat0=    1 NMatS0=    1 NMatT0=    0 NMatD0=    1 NMtDS0=    0 NMtDT0=    0
         I1Cent=           0 NGrid=           0.
 Symmetry not used in FoFCou.
 Leave Link  703 at Sat Feb 23 08:04:06 2013, MaxMem= 2147483648 cpu:    1325.9
 (Enter /home/ztw1e12/g09/l716.exe)
 Dipole        =-1.22136094D+00 4.64532350D-01-5.43428688D-01
 ***** Axes restored to original set *****
 -------------------------------------------------------------------
 Center     Atomic                   Forces (Hartrees/Bohr)
 Number     Number              X              Y              Z
 -------------------------------------------------------------------
      1        6          -0.058865682   -0.030189865   -0.032132795
      2        6          -0.026820214    0.004037990   -0.013694944
      3        1           0.020290691   -0.001064300    0.000346507
      4        6          -0.029592361   -0.010218820   -0.012721359
      5        1           0.006868507    0.004229076    0.016190543
      6        1           0.015221848    0.003066748   -0.009159755
      7        8           0.011411177   -0.007519319    0.003574435
      8        1           0.003061958   -0.002394739    0.000899693
      9        7          -0.004259652   -0.037461127   -0.020865094
     10        1           0.007343856    0.000597293    0.011400159
     11        8           0.081682278    0.044181485    0.005878557
     12        7          -0.030431505    0.032836223    0.018455862
     13        1           0.009748172   -0.007528383    0.008231200
     14        6           0.005796547   -0.010287108    0.016018672
     15        1           0.010440811   -0.000905361   -0.006849571
     16        1          -0.012035780   -0.006966127   -0.007939862
     17        1          -0.004527510    0.010567897   -0.001865829
     18        6           0.039908358   -0.025689393    0.047285376
     19        6           0.019448477    0.022491012    0.013586731
     20        1          -0.009702894   -0.003920408   -0.000708123
     21        1           0.006619815   -0.011139869    0.003480922
     22        1          -0.010911582   -0.001394008    0.008556591
     23        8          -0.050695316    0.034671103   -0.047967917
 -------------------------------------------------------------------
 Cartesian Forces:  Max     0.081682278 RMS     0.022547297
 Leave Link  716 at Sat Feb 23 08:04:06 2013, MaxMem= 2147483648 cpu:       0.6
 (Enter /home/ztw1e12/g09/l103.exe)

 GradGradGradGradGradGradGradGradGradGradGradGradGradGradGradGradGradGrad
 Berny optimization.
 Internal  Forces:  Max     0.082183459 RMS     0.014890586
 Search for a local minimum.
 Step number   1 out of a maximum of  114
 All quantities printed in internal units (Hartrees-Bohrs-Radians)
 RMS Force = .14891D-01 SwitMx=.10000D-02 MixMth= 1
 Mixed Optimization -- RFO/linear search
 Second derivative matrix not updated -- first step.
     Eigenvalues ---    0.00237   0.00237   0.00290   0.00448   0.00524
     Eigenvalues ---    0.00766   0.00766   0.00766   0.01295   0.02099
     Eigenvalues ---    0.03399   0.04252   0.05005   0.05139   0.05302
     Eigenvalues ---    0.05816   0.06374   0.07212   0.07243   0.07537
     Eigenvalues ---    0.07537   0.08547   0.11239   0.11287   0.11288
     Eigenvalues ---    0.13704   0.16000   0.16000   0.16000   0.16000
     Eigenvalues ---    0.16000   0.16000   0.16127   0.17794   0.19654
     Eigenvalues ---    0.22071   0.23464   0.24117   0.25000   0.25000
     Eigenvalues ---    0.25000   0.28493   0.28519   0.28519   0.34867
     Eigenvalues ---    0.35740   0.35740   0.35740   0.36981   0.37230
     Eigenvalues ---    0.37230   0.37230   0.37230   0.37230   0.37230
     Eigenvalues ---    0.37230   0.37230   0.40989   0.47688   0.47688
     Eigenvalues ---    0.55473   0.80003   0.802091000.000001000.00000
     Eigenvalues --- 1000.000001000.000001000.000001000.000001000.00000
     Eigenvalues --- 1000.000001000.000001000.000001000.000001000.00000
     Eigenvalues --- 1000.000001000.000001000.000001000.000001000.00000
     Eigenvalues --- 1000.000001000.000001000.000001000.000001000.00000
     Eigenvalues --- 1000.000001000.000001000.000001000.000001000.00000
     Eigenvalues --- 1000.000001000.000001000.000001000.000001000.00000
     Eigenvalues --- 1000.000001000.000001000.000001000.000001000.00000
     Eigenvalues --- 1000.000001000.000001000.000001000.00000
 RFO step:  Lambda=-5.15762151D-02 EMin= 2.36824136D-03
 Linear search not attempted -- first point.
 Maximum step size (   0.300) exceeded in Quadratic search.
    -- Step size scaled by   0.650
 Iteration  1 RMS(Cart)=  0.09913849 RMS(Int)=  0.00335329
 Iteration  2 RMS(Cart)=  0.00595532 RMS(Int)=  0.00023354
 Iteration  3 RMS(Cart)=  0.00002728 RMS(Int)=  0.00023321
 Iteration  4 RMS(Cart)=  0.00000000 RMS(Int)=  0.00023321
 Variable       Old X    -DE/DX   Delta X   Delta X   Delta X     New X
                                 (Linear)    (Quad)   (Total)
    R1        2.91018  -0.01596   0.00000  -0.03080  -0.03087   2.87931
    R2        2.37803  -0.08218   0.00000  -0.06260  -0.06249   2.31554
    R3        2.77790  -0.03550   0.00000  -0.05644  -0.05644   2.72146
    R4        2.02201   0.01908   0.00000   0.02927   0.02927   2.05127
    R5        2.91018  -0.01312   0.00000  -0.02533  -0.02533   2.88485
    R6        2.77790   0.00044   0.00000   0.00076   0.00045   2.77834
    R7        2.02201   0.01742   0.00000   0.02672   0.02672   2.04872
    R8        2.02201   0.01728   0.00000   0.02651   0.02651   2.04852
    R9        2.70231  -0.01711   0.00000  -0.02411  -0.02411   2.67820
   R10        1.81414  -0.00267   0.00000  -0.00286  -0.00286   1.81127
   R11        1.88973   0.01172   0.00000   0.01442   0.01442   1.90414
   R12        2.77790  -0.03172   0.00000  -0.05038  -0.05067   2.72723
   R13        3.28359   0.02264   0.00000   0.12206   0.12242   3.40601
   R14        1.88973   0.01195   0.00000   0.01471   0.01471   1.90443
   R15        2.77790   0.00037   0.00000   0.00058   0.00058   2.77848
   R16        2.02201   0.01235   0.00000   0.01895   0.01895   2.04095
   R17        2.02201   0.01438   0.00000   0.02206   0.02206   2.04407
   R18        2.02201   0.01165   0.00000   0.01787   0.01787   2.03987
   R19        2.91018  -0.02776   0.00000  -0.05357  -0.05366   2.85652
   R20        2.37803  -0.07770   0.00000  -0.05918  -0.05918   2.31885
   R21        2.02201   0.01858   0.00000   0.02844   0.02875   2.05075
   R22        2.02201   0.01225   0.00000   0.01879   0.01879   2.04079
   R23        2.02201   0.01364   0.00000   0.02092   0.02092   2.04293
    A1        2.09440   0.01344   0.00000   0.02902   0.02867   2.12306
    A2        2.09440  -0.02880   0.00000  -0.06211  -0.06210   2.03229
    A3        2.09440   0.01536   0.00000   0.03309   0.03309   2.12749
    A4        1.91063  -0.00205   0.00000  -0.01252  -0.01322   1.89741
    A5        1.91063  -0.00547   0.00000  -0.01598  -0.01591   1.89473
    A6        1.91063   0.00947   0.00000   0.03719   0.03659   1.94722
    A7        1.91063  -0.00187   0.00000  -0.02231  -0.02271   1.88793
    A8        1.91063   0.00096   0.00000   0.01207   0.01226   1.92290
    A9        1.91063  -0.00103   0.00000   0.00156   0.00183   1.91246
   A10        1.91063  -0.00261   0.00000  -0.01246  -0.01247   1.89816
   A11        1.91063  -0.00193   0.00000  -0.01020  -0.01022   1.90041
   A12        1.91063  -0.00435   0.00000  -0.00936  -0.00933   1.90131
   A13        1.91063  -0.00014   0.00000  -0.00244  -0.00271   1.90792
   A14        1.91063   0.00477   0.00000   0.01816   0.01808   1.92871
   A15        1.91063   0.00426   0.00000   0.01630   0.01623   1.92686
   A16        1.91063  -0.00537   0.00000  -0.01649  -0.01649   1.89414
   A17        1.91063  -0.00616   0.00000  -0.01563  -0.01482   1.89581
   A18        1.91063   0.02449   0.00000   0.05359   0.05311   1.96374
   A19        1.91063  -0.01109   0.00000  -0.03499  -0.03446   1.87617
   A20        1.91063  -0.00403   0.00000  -0.00603  -0.00629   1.90435
   A21        1.91063   0.01178   0.00000   0.02882   0.02871   1.93934
   A22        1.91063  -0.00081   0.00000   0.00587   0.00577   1.91641
   A23        1.91063  -0.00375   0.00000  -0.01216  -0.01223   1.89840
   A24        1.91063   0.01122   0.00000   0.03682   0.03681   1.94744
   A25        1.91063  -0.00205   0.00000  -0.00800  -0.00807   1.90256
   A26        1.91063  -0.00167   0.00000  -0.00173  -0.00174   1.90890
   A27        1.91063   0.00004   0.00000  -0.00458  -0.00472   1.90591
   A28        1.91063  -0.00379   0.00000  -0.01036  -0.01037   1.90026
   A29        2.09440  -0.01674   0.00000  -0.03589  -0.03678   2.05762
   A30        2.09440   0.00375   0.00000   0.00798   0.00824   2.10263
   A31        2.09440   0.01299   0.00000   0.02791   0.02817   2.12256
   A32        1.91063  -0.00520   0.00000  -0.01452  -0.01492   1.89571
   A33        1.91063  -0.00249   0.00000  -0.00616  -0.00616   1.90447
   A34        1.91063  -0.00358   0.00000  -0.01387  -0.01394   1.89669
   A35        1.91063   0.00711   0.00000   0.02751   0.02759   1.93823
   A36        1.91063   0.00265   0.00000   0.00510   0.00504   1.91567
   A37        1.91063   0.00150   0.00000   0.00195   0.00186   1.91249
    D1        2.61799   0.00351   0.00000   0.01619   0.01580   2.63379
    D2       -1.57080  -0.00339   0.00000  -0.02859  -0.02862  -1.59942
    D3        0.52360  -0.00221   0.00000  -0.01370  -0.01382   0.50978
    D4       -0.52360   0.00112   0.00000  -0.01171  -0.01194  -0.53554
    D5        1.57080  -0.00578   0.00000  -0.05649  -0.05636   1.51443
    D6       -2.61799  -0.00460   0.00000  -0.04160  -0.04156  -2.65956
    D7        1.57080  -0.00628   0.00000  -0.05803  -0.05805   1.51275
    D8       -2.61799  -0.00252   0.00000  -0.03689  -0.03696  -2.65495
    D9       -1.57080  -0.00867   0.00000  -0.08593  -0.08587  -1.65666
   D10        0.52360  -0.00491   0.00000  -0.06479  -0.06477   0.45883
   D11        3.14159   0.00601   0.00000   0.02930   0.02895  -3.11264
   D12       -1.04720   0.00307   0.00000   0.01244   0.01214  -1.03506
   D13        1.04720   0.00443   0.00000   0.02043   0.02009   1.06729
   D14       -1.04720  -0.00099   0.00000  -0.00948  -0.00943  -1.05663
   D15        1.04720  -0.00394   0.00000  -0.02635  -0.02624   1.02096
   D16        3.14159  -0.00257   0.00000  -0.01836  -0.01828   3.12331
   D17        1.04720  -0.00160   0.00000  -0.00741  -0.00718   1.04002
   D18       -3.14159  -0.00454   0.00000  -0.02427  -0.02399   3.11761
   D19       -1.04720  -0.00318   0.00000  -0.01628  -0.01603  -1.06323
   D20        3.14159   0.00119   0.00000   0.00016   0.00003  -3.14156
   D21        1.04720   0.00355   0.00000   0.01977   0.01943   1.06662
   D22        1.04720  -0.00268   0.00000  -0.01467  -0.01478   1.03241
   D23       -1.04720  -0.00033   0.00000   0.00494   0.00462  -1.04258
   D24       -1.04720  -0.00035   0.00000   0.00431   0.00444  -1.04276
   D25        3.14159   0.00201   0.00000   0.02392   0.02384  -3.11775
   D26        3.14159  -0.00006   0.00000   0.00056   0.00055  -3.14104
   D27        1.04720   0.00287   0.00000   0.01043   0.01060   1.05780
   D28       -1.04720  -0.00249   0.00000  -0.00769  -0.00785  -1.05505
   D29       -1.57080   0.00048   0.00000  -0.00332  -0.00305  -1.57384
   D30        1.57080   0.00299   0.00000   0.02591   0.02583   1.59663
   D31        2.61799  -0.00018   0.00000   0.00444   0.00490   2.62290
   D32       -0.52360   0.00232   0.00000   0.03366   0.03378  -0.48981
   D33        3.14159  -0.00296   0.00000  -0.01785  -0.01787   3.12372
   D34       -1.04720  -0.00042   0.00000  -0.00487  -0.00495  -1.05214
   D35        1.04720   0.00055   0.00000   0.00010  -0.00003   1.04717
   D36       -1.04720  -0.00118   0.00000  -0.00400  -0.00387  -1.05107
   D37        1.04720   0.00136   0.00000   0.00898   0.00906   1.05625
   D38       -3.14159   0.00232   0.00000   0.01395   0.01397  -3.12762
   D39        0.52360  -0.00091   0.00000   0.00244   0.00254   0.52614
   D40        2.61799   0.00309   0.00000   0.02346   0.02339   2.64139
   D41       -1.57080   0.00122   0.00000   0.01358   0.01359  -1.55720
   D42       -2.61799  -0.00342   0.00000  -0.02679  -0.02669  -2.64468
   D43       -0.52360   0.00059   0.00000  -0.00576  -0.00584  -0.52944
   D44        1.57080  -0.00129   0.00000  -0.01565  -0.01564   1.55516
         Item               Value     Threshold  Converged?
 Maximum Force            0.082183     0.000015     NO 
 RMS     Force            0.014891     0.000010     NO 
 Maximum Displacement     0.324029     0.000060     NO 
 RMS     Displacement     0.101656     0.000040     NO 
 Predicted change in Energy=-2.494696D-02
 GradGradGradGradGradGradGradGradGradGradGradGradGradGradGradGradGradGrad

 Leave Link  103 at Sat Feb 23 08:04:06 2013, MaxMem= 2147483648 cpu:       4.4
 (Enter /home/ztw1e12/g09/l202.exe)
                          Input orientation:                          
 ---------------------------------------------------------------------
 Center     Atomic      Atomic             Coordinates (Angstroms)
 Number     Number       Type             X           Y           Z
 ---------------------------------------------------------------------
      1          6           0       -4.396596   -0.327887   -0.243577
      2          6           0       -4.094764    0.294901    1.113843
      3          1           0       -3.074964    0.047524    1.391502
      4          6           0       -4.198523    1.812592    0.986010
      5          1           0       -3.955543    2.260453    1.942951
      6          1           0       -3.487876    2.151346    0.240794
      7          8           0       -5.519106    2.152408    0.599804
      8          1           0       -5.577514    3.105848    0.520845
      9          7           0       -5.029912   -0.177660    2.145239
     10          1           0       -4.791115    0.259941    3.020909
     11          8           0       -5.531681   -0.666209   -0.557516
     12          7           0       -3.284358   -0.464087   -1.148214
     13          1           0       -2.812949   -1.335287   -0.962718
     14          6           0       -3.732709   -0.428554   -2.548044
     15          1           0       -2.869750   -0.515192   -3.191666
     16          1           0       -4.424085   -1.231680   -2.764862
     17          1           0       -4.222826    0.514591   -2.736419
     18          6           0       -4.961175   -1.605866    2.340933
     19          6           0       -5.871353   -2.478484    1.507228
     20          1           0       -6.046621   -1.986790    0.555807
     21          1           0       -5.405145   -3.442281    1.365744
     22          1           0       -6.808066   -2.602787    2.032428
     23          8           0       -4.206236   -2.083030    3.182432
 ---------------------------------------------------------------------
                    Distance matrix (angstroms):
                    1          2          3          4          5
     1  C    0.000000
     2  C    1.523665   0.000000
     3  H    2.135679   1.085486   0.000000
     4  C    2.476443   1.526595   2.131262   0.000000
[...]
                 (A) (A) (A) (A) (A) (A) (A) (A) (A) (A) (A) (A)
                 (A) (A) (A) (A) (A) (A) (A) (A) (A) (A) (A) (A)
                 (A) (A) (A) (A) (A) (A) (A) (A) (A) (A) (A) (A)
                 (A) (A) (A) (A) (A) (A) (A) (A) (A) (A) (A) (A)
                 (A) (A) (A) (A) (A) (A) (A) (A) (A) (A) (A) (A)
                 (A) (A) (A) (A) (A) (A) (A) (A) (A) (A) (A) (A)
                 (A) (A) (A) (A) (A) (A) (A) (A) (A) (A) (A) (A)
                 (A) (A) (A) (A) (A) (A) (A) (A) (A) (A) (A)
 The electronic state is 1-A.
 Alpha  occ. eigenvalues --  -19.24126 -19.18703 -19.16594 -14.42688 -14.40298
 Alpha  occ. eigenvalues --  -10.34649 -10.33219 -10.31715 -10.30305 -10.27537
 Alpha  occ. eigenvalues --  -10.23530  -1.08198  -1.06972  -1.04902  -0.95123
 Alpha  occ. eigenvalues --   -0.93917  -0.79388  -0.74764  -0.72506  -0.66369
 Alpha  occ. eigenvalues --   -0.60785  -0.59637  -0.57220  -0.54309  -0.50132
 Alpha  occ. eigenvalues --   -0.49130  -0.48583  -0.47419  -0.46734  -0.45490
 Alpha  occ. eigenvalues --   -0.43561  -0.42913  -0.40975  -0.40794  -0.40078
 Alpha  occ. eigenvalues --   -0.39223  -0.38195  -0.37026  -0.32190  -0.28825
 Alpha  occ. eigenvalues --   -0.28377  -0.26745  -0.25788
 Alpha virt. eigenvalues --   -0.00121   0.01810   0.02361   0.03711   0.04924
 Alpha virt. eigenvalues --    0.05202   0.07615   0.08376   0.09184   0.10656
 Alpha virt. eigenvalues --    0.10998   0.11089   0.11963   0.13139   0.14757
 Alpha virt. eigenvalues --    0.15442   0.16351   0.18416   0.20428   0.22805
 Alpha virt. eigenvalues --    0.23785   0.24346   0.25674   0.26485   0.26806
 Alpha virt. eigenvalues --    0.28229   0.29435   0.30567   0.31479   0.32740
 Alpha virt. eigenvalues --    0.33580   0.34526   0.35037   0.35574   0.37066
 Alpha virt. eigenvalues --    0.37783   0.38588   0.38731   0.39315   0.40193
 Alpha virt. eigenvalues --    0.40635   0.41720   0.42416   0.42745   0.44044
 Alpha virt. eigenvalues --    0.44307   0.44449   0.46340   0.46623   0.47254
 Alpha virt. eigenvalues --    0.48766   0.49829   0.50500   0.50658   0.52192
 Alpha virt. eigenvalues --    0.52719   0.54137   0.55934   0.56615   0.57312
 Alpha virt. eigenvalues --    0.59331   0.60257   0.62126   0.62735   0.63328
 Alpha virt. eigenvalues --    0.65474   0.66589   0.68263   0.69136   0.70554
 Alpha virt. eigenvalues --    0.71652   0.72594   0.74045   0.75732   0.76431
 Alpha virt. eigenvalues --    0.77802   0.79558   0.80761   0.81224   0.83148
 Alpha virt. eigenvalues --    0.84528   0.85914   0.86781   0.88073   0.88967
 Alpha virt. eigenvalues --    0.90612   0.91123   0.91378   0.92562   0.94065
 Alpha virt. eigenvalues --    0.94335   0.96367   0.96775   0.98614   0.99407
 Alpha virt. eigenvalues --    1.00599   1.01057   1.01779   1.02499   1.04802
 Alpha virt. eigenvalues --    1.04969   1.06357   1.06841   1.08512   1.10221
 Alpha virt. eigenvalues --    1.10305   1.11152   1.12155   1.13790   1.14923
 Alpha virt. eigenvalues --    1.15748   1.17612   1.18125   1.19712   1.20641
 Alpha virt. eigenvalues --    1.21448   1.22223   1.23024   1.23375   1.24664
 Alpha virt. eigenvalues --    1.26017   1.26664   1.28928   1.28991   1.30481
 Alpha virt. eigenvalues --    1.30796   1.31912   1.32851   1.34902   1.35988
 Alpha virt. eigenvalues --    1.36359   1.40947   1.41217   1.42972   1.44267
 Alpha virt. eigenvalues --    1.44674   1.45611   1.47673   1.49493   1.50653
 Alpha virt. eigenvalues --    1.52256   1.53806   1.55433   1.58589   1.59405
 Alpha virt. eigenvalues --    1.60704   1.64890   1.66659   1.73613   1.75394
 Alpha virt. eigenvalues --    1.75742   1.78638   1.81259   1.83792   1.86090
 Alpha virt. eigenvalues --    1.86577   1.92163   1.94437   1.95050   1.97125
 Alpha virt. eigenvalues --    2.00529   2.00731   2.04367   2.07866   2.09707
 Alpha virt. eigenvalues --    2.11193   2.12315   2.13682   2.16837   2.17950
 Alpha virt. eigenvalues --    2.23527   2.25845   2.27333   2.28534   2.30127
 Alpha virt. eigenvalues --    2.31375   2.34212   2.35399   2.36154   2.38456
 Alpha virt. eigenvalues --    2.40987   2.43507   2.44235   2.47903   2.50440
 Alpha virt. eigenvalues --    2.51662   2.52997   2.54953   2.56436   2.57010
 Alpha virt. eigenvalues --    2.58472   2.60624   2.62888   2.64467   2.64797
 Alpha virt. eigenvalues --    2.65481   2.67009   2.68518   2.69763   2.71866
 Alpha virt. eigenvalues --    2.72684   2.73818   2.75474   2.76034   2.76374
 Alpha virt. eigenvalues --    2.78349   2.78795   2.80094   2.82923   2.84158
 Alpha virt. eigenvalues --    2.84666   2.87333   2.88270   2.89021   2.90677
 Alpha virt. eigenvalues --    2.91581   2.92905   2.94136   2.94657   2.95278
 Alpha virt. eigenvalues --    2.95416   2.96917   2.98568   2.98975   3.00424
 Alpha virt. eigenvalues --    3.02379   3.03034   3.03831   3.04656   3.06460
 Alpha virt. eigenvalues --    3.07729   3.08085   3.09304   3.11491   3.12863
 Alpha virt. eigenvalues --    3.14800   3.16760   3.17651   3.19474   3.21455
 Alpha virt. eigenvalues --    3.22158   3.23404   3.25013   3.25829   3.27209
 Alpha virt. eigenvalues --    3.28078   3.28613   3.29994   3.31053   3.31806
 Alpha virt. eigenvalues --    3.32667   3.34454   3.35054   3.36164   3.37103
 Alpha virt. eigenvalues --    3.37745   3.38974   3.39399   3.40295   3.40718
 Alpha virt. eigenvalues --    3.42816   3.44111   3.44609   3.46424   3.47076
 Alpha virt. eigenvalues --    3.48778   3.49957   3.50465   3.52479   3.53503
 Alpha virt. eigenvalues --    3.54749   3.56074   3.59564   3.60712   3.61102
 Alpha virt. eigenvalues --    3.63711   3.64162   3.65296   3.67190   3.67682
 Alpha virt. eigenvalues --    3.68949   3.70244   3.71274   3.72451   3.74442
 Alpha virt. eigenvalues --    3.75492   3.77083   3.78597   3.78866   3.81001
 Alpha virt. eigenvalues --    3.81485   3.83196   3.83746   3.85954   3.86514
 Alpha virt. eigenvalues --    3.87119   3.88767   3.90323   3.91042   3.92802
 Alpha virt. eigenvalues --    3.95797   3.97105   3.98015   4.00702   4.01637
 Alpha virt. eigenvalues --    4.02156   4.03466   4.05006   4.05935   4.06773
 Alpha virt. eigenvalues --    4.07972   4.08425   4.09630   4.12234   4.12877
 Alpha virt. eigenvalues --    4.14307   4.14963   4.15899   4.18095   4.19814
 Alpha virt. eigenvalues --    4.19980   4.21738   4.25406   4.26173   4.26587
 Alpha virt. eigenvalues --    4.28318   4.29942   4.32385   4.32921   4.34244
 Alpha virt. eigenvalues --    4.35131   4.37226   4.39803   4.41655   4.43415
 Alpha virt. eigenvalues --    4.44956   4.46145   4.47276   4.49160   4.53853
 Alpha virt. eigenvalues --    4.56020   4.58639   4.62116   4.64150   4.64374
 Alpha virt. eigenvalues --    4.67141   4.68102   4.69848   4.71818   4.72530
 Alpha virt. eigenvalues --    4.74416   4.75674   4.76721   4.77856   4.78785
 Alpha virt. eigenvalues --    4.80235   4.82119   4.82553   4.84036   4.88736
 Alpha virt. eigenvalues --    4.89816   4.91795   4.93883   4.95512   4.97635
 Alpha virt. eigenvalues --    4.98980   5.00063   5.00257   5.01379   5.03699
 Alpha virt. eigenvalues --    5.06683   5.07076   5.10107   5.10964   5.11912
 Alpha virt. eigenvalues --    5.13367   5.14671   5.15625   5.16744   5.20413
 Alpha virt. eigenvalues --    5.20999   5.21607   5.23073   5.26611   5.26920
 Alpha virt. eigenvalues --    5.27765   5.30136   5.32724   5.33924   5.36175
 Alpha virt. eigenvalues --    5.39058   5.41289   5.43045   5.48072   5.52254
 Alpha virt. eigenvalues --    5.56085   5.59933   5.60497   5.62371   5.65898
 Alpha virt. eigenvalues --    5.70041   5.70407   5.72705   5.74744   5.76533
 Alpha virt. eigenvalues --    5.78993   5.81137   5.83107   5.86665   5.87329
 Alpha virt. eigenvalues --    5.91486   5.94400   5.96148   5.99398   6.00089
 Alpha virt. eigenvalues --    6.06541   6.07105   6.15507   6.26654   6.29424
 Alpha virt. eigenvalues --    6.30792   6.39433   6.45715   6.49351   6.50223
 Alpha virt. eigenvalues --    6.54914   6.56937   6.59958   6.64813   6.67173
 Alpha virt. eigenvalues --    6.68961   6.78085   6.87934   6.90310   6.92054
 Alpha virt. eigenvalues --    6.92942   6.95992   7.01829   7.09081   7.11267
 Alpha virt. eigenvalues --    7.14698   7.17467   7.27074   7.45857   9.30007
 Alpha virt. eigenvalues --    9.51672  11.87338  12.23686  12.63864  12.70025
 Alpha virt. eigenvalues --   12.98719  13.28774  13.41404  13.55845  13.76759
          Condensed to atoms (all electrons):
              1          2          3          4          5          6
     1  C    4.721609   0.143883  -0.051233  -0.050065   0.011050  -0.009912
     2  C    0.143883   5.543176   0.406436   0.211359  -0.045436  -0.047941
     3  H   -0.051233   0.406436   0.474665  -0.022164  -0.003433  -0.007745
     4  C   -0.050065   0.211359  -0.022164   4.866484   0.419188   0.408862
     5  H    0.011050  -0.045436  -0.003433   0.419188   0.603468  -0.048598
     6  H   -0.009912  -0.047941  -0.007745   0.408862  -0.048598   0.622212
     7  O    0.009131  -0.068365   0.003232   0.312607  -0.046848  -0.041294
     8  H   -0.000612   0.011880  -0.000484  -0.028113  -0.007544  -0.004212
     9  N   -0.067243   0.303341  -0.022003  -0.041695  -0.002799   0.005600
    10  H   -0.004548  -0.047350   0.004635  -0.001569  -0.002840   0.002238
    11  O    0.740900  -0.096671   0.000173  -0.000965  -0.000490  -0.000040
    12  N    0.347855  -0.098286   0.009081   0.012508  -0.000317   0.000692
    13  H   -0.030981   0.009219  -0.000726  -0.000129  -0.000488   0.005009
    14  C   -0.055867   0.004573  -0.000777  -0.000375   0.000065   0.000264
    15  H    0.002700   0.000030   0.000115  -0.000197  -0.000016  -0.000161
    16  H    0.001970  -0.000458  -0.000077   0.000129   0.000005   0.000034
    17  H   -0.011392   0.004485  -0.000324  -0.000290   0.000022  -0.000023
    18  C    0.005001  -0.047467  -0.005700  -0.002051  -0.000261   0.000001
    19  C   -0.008054   0.005081   0.000684  -0.001366  -0.000131  -0.000110
    20  H    0.000520  -0.004642   0.000652  -0.000121   0.000108   0.000055
    21  H    0.000250  -0.000371   0.000106   0.000035  -0.000005  -0.000004
    22  H    0.003226   0.000605  -0.004023   0.000897   0.000037  -0.000022
    23  O   -0.000777   0.003178   0.000198  -0.000399  -0.000085   0.000012
              7          8          9         10         11         12
     1  C    0.009131  -0.000612  -0.067243  -0.004548   0.740900   0.347855
     2  C   -0.068365   0.011880   0.303341  -0.047350  -0.096671  -0.098286
     3  H    0.003232  -0.000484  -0.022003   0.004635   0.000173   0.009081
     4  C    0.312607  -0.028113  -0.041695  -0.001569  -0.000965   0.012508
     5  H   -0.046848  -0.007544  -0.002799  -0.002840  -0.000490  -0.000317
     6  H   -0.041294  -0.004212   0.005600   0.002238  -0.000040   0.000692
     7  O    7.787757   0.347245  -0.011590   0.024805  -0.000739  -0.002462
     8  H    0.347245   0.502854   0.000463  -0.001589   0.000033  -0.000121
     9  N   -0.011590   0.000463   6.541150   0.353095  -0.000535   0.005737
    10  H    0.024805  -0.001589   0.353095   0.536877   0.002476   0.000214
    11  O   -0.000739   0.000033  -0.000535   0.002476   7.789284  -0.113610
    12  N   -0.002462  -0.000121   0.005737   0.000214  -0.113610   6.495160
    13  H   -0.000670   0.000012   0.000353   0.000008   0.004757   0.380684
    14  C    0.000077   0.000004  -0.000370  -0.000009  -0.018653   0.268716
    15  H    0.000084   0.000004   0.000013   0.000002  -0.000046  -0.038243
    16  H    0.000003  -0.000001   0.000009  -0.000001  -0.000065  -0.034155
    17  H   -0.000001   0.000000  -0.000176  -0.000027   0.031165  -0.041832
    18  C   -0.001608   0.000094   0.354161  -0.024675   0.014306   0.000548
    19  C   -0.000135   0.000010  -0.123753   0.012219  -0.003257  -0.000697
    20  H   -0.000008   0.000001   0.005210  -0.000726   0.000392  -0.000104
    21  H    0.000001   0.000000   0.007469  -0.000659  -0.000013   0.000003
    22  H   -0.000007   0.000002  -0.000009  -0.001151   0.002533   0.000463
    23  O    0.000006  -0.000001  -0.143893   0.016502  -0.000521  -0.000007
             13         14         15         16         17         18
     1  C   -0.030981  -0.055867   0.002700   0.001970  -0.011392   0.005001
     2  C    0.009219   0.004573   0.000030  -0.000458   0.004485  -0.047467
     3  H   -0.000726  -0.000777   0.000115  -0.000077  -0.000324  -0.005700
     4  C   -0.000129  -0.000375  -0.000197   0.000129  -0.000290  -0.002051
     5  H   -0.000488   0.000065  -0.000016   0.000005   0.000022  -0.000261
     6  H    0.005009   0.000264  -0.000161   0.000034  -0.000023   0.000001
     7  O   -0.000670   0.000077   0.000084   0.000003  -0.000001  -0.001608
     8  H    0.000012   0.000004   0.000004  -0.000001   0.000000   0.000094
     9  N    0.000353  -0.000370   0.000013   0.000009  -0.000176   0.354161
    10  H    0.000008  -0.000009   0.000002  -0.000001  -0.000027  -0.024675
    11  O    0.004757  -0.018653  -0.000046  -0.000065   0.031165   0.014306
    12  N    0.380684   0.268716  -0.038243  -0.034155  -0.041832   0.000548
    13  H    0.531901  -0.031435  -0.002640  -0.005505   0.005866  -0.000112
    14  C   -0.031435   4.809469   0.400301   0.402182   0.394982  -0.000021
    15  H   -0.002640   0.400301   0.614870  -0.045061  -0.025926   0.000000
    16  H   -0.005505   0.402182  -0.045061   0.611113  -0.025430  -0.000001
    17  H    0.005866   0.394982  -0.025926  -0.025430   0.534746  -0.000052
    18  C   -0.000112  -0.000021   0.000000  -0.000001  -0.000052   4.472897
    19  C    0.000107  -0.000006   0.000000   0.000004   0.000011   0.244747
    20  H   -0.000047   0.000024  -0.000001   0.000002   0.000003  -0.031138
    21  H    0.000002   0.000002   0.000000   0.000000  -0.000001  -0.030195
    22  H   -0.000078   0.000166  -0.000002   0.000033   0.000012  -0.020652
    23  O    0.000000   0.000000   0.000000   0.000000   0.000001   0.778232
             19         20         21         22         23
     1  C   -0.008054   0.000520   0.000250   0.003226  -0.000777
     2  C    0.005081  -0.004642  -0.000371   0.000605   0.003178
     3  H    0.000684   0.000652   0.000106  -0.004023   0.000198
     4  C   -0.001366  -0.000121   0.000035   0.000897  -0.000399
     5  H   -0.000131   0.000108  -0.000005   0.000037  -0.000085
     6  H   -0.000110   0.000055  -0.000004  -0.000022   0.000012
     7  O   -0.000135  -0.000008   0.000001  -0.000007   0.000006
     8  H    0.000010   0.000001   0.000000   0.000002  -0.000001
     9  N   -0.123753   0.005210   0.007469  -0.000009  -0.143893
    10  H    0.012219  -0.000726  -0.000659  -0.001151   0.016502
    11  O   -0.003257   0.000392  -0.000013   0.002533  -0.000521
    12  N   -0.000697  -0.000104   0.000003   0.000463  -0.000007
    13  H    0.000107  -0.000047   0.000002  -0.000078   0.000000
    14  C   -0.000006   0.000024   0.000002   0.000166   0.000000
    15  H    0.000000  -0.000001   0.000000  -0.000002   0.000000
    16  H    0.000004   0.000002   0.000000   0.000033   0.000000
    17  H    0.000011   0.000003  -0.000001   0.000012   0.000001
    18  C    0.244747  -0.031138  -0.030195  -0.020652   0.778232
    19  C    5.250935   0.370347   0.387521   0.362653  -0.094118
    20  H    0.370347   0.578153  -0.012166  -0.035715   0.001384
    21  H    0.387521  -0.012166   0.511383  -0.008278   0.010478
    22  H    0.362653  -0.035715  -0.008278   0.556809   0.001749
    23  O   -0.094118   0.001384   0.010478   0.001749   7.792595
 Mulliken atomic charges:
              1
     1  C    0.302590
     2  C   -0.190260
     3  H    0.218712
     4  C   -0.082570
     5  H    0.125348
     6  H    0.115085
     7  O   -0.311220
     8  H    0.180075
     9  N   -0.162538
    10  H    0.132075
    11  O   -0.350413
    12  N   -0.191827
    13  H    0.134896
    14  C   -0.173313
    15  H    0.094175
    16  H    0.095272
    17  H    0.134181
    18  C    0.293947
    19  C   -0.402689
    20  H    0.127817
    21  H    0.134445
    22  H    0.140751
    23  O   -0.364536
 Sum of Mulliken atomic charges =   0.00000
 Mulliken charges with hydrogens summed into heavy atoms:
              1
     1  C    0.302590
     2  C    0.028452
     4  C    0.157863
     7  O   -0.131145
     9  N   -0.030463
    11  O   -0.350413
    12  N   -0.056931
    14  C    0.150314
    18  C    0.293947
    19  C    0.000323
    23  O   -0.364536
 Sum of Mulliken charges with hydrogens summed into heavy atoms =   0.00000
 Electronic spatial extent (au):  <R**2>=           1994.4707
 Charge=              0.0000 electrons
 Dipole moment (field-independent basis, Debye):
    X=              5.5021    Y=              2.2860    Z=              5.2060  Tot=              7.9121
 Quadrupole moment (field-independent basis, Debye-Ang):
   XX=            -71.8023   YY=            -55.0481   ZZ=            -67.1903
   XY=              0.7099   XZ=             -2.4184   YZ=             -2.0730
 Traceless Quadrupole moment (field-independent basis, Debye-Ang):
   XX=             -7.1221   YY=              9.6321   ZZ=             -2.5101
   XY=              0.7099   XZ=             -2.4184   YZ=             -2.0730
 Octapole moment (field-independent basis, Debye-Ang**2):
  XXX=             76.5830  YYY=             43.3740  ZZZ=              1.3266  XYY=             10.1224
  XXY=             -4.1503  XXZ=             20.2555  XZZ=              5.0702  YZZ=              6.4906
  YYZ=             -2.3493  XYZ=              4.6445
 Hexadecapole moment (field-independent basis, Debye-Ang**3):
 XXXX=          -1639.2146 YYYY=           -568.5066 ZZZZ=           -269.4994 XXXY=            -19.4070
 XXXZ=            -53.0099 YYYX=             44.5348 YYYZ=            -18.1526 ZZZX=              9.3530
 ZZZY=             -5.4997 XXYY=           -342.2943 XXZZ=           -302.1860 YYZZ=           -167.5866
 XXYZ=             -9.0787 YYXZ=             -1.8344 ZZXY=             -0.6609
 N-N= 6.661054372481D+02 E-N=-2.667428903473D+03  KE= 5.670000683554D+02
 Calculating spin-rotation constants.
 Leave Link  601 at Sun Feb 24 02:55:56 2013, MaxMem= 2147483648 cpu:     268.0
 (Enter /home/ztw1e12/g09/l9999.exe)

 Test job not archived.
 1\1\GINC-RED0379\SP\RM06\Gen\C6H12N2O3\ZTW1E12\24-Feb-2013\0\\#P Geom=
 AllCheck Guess=TCheck SCRF=Check GenChk RM06/ChkBas NMR=ReadFC IOp(3/6
 =22)\\J-coupling calculation 1\\0,1\C,0,-4.8094891316,-0.2238228637,-0
 .4378967515\C,0,-4.2282421609,0.0121555535,0.9687533061\H,0,-3.4056349
 903,-0.6964887586,1.1138134582\C,0,-3.6519852645,1.4086801519,1.100575
 7585\H,0,-3.2511026988,1.5202215678,2.11458899\H,0,-2.8228590433,1.548
 1639363,0.3939501432\O,0,-4.6978167388,2.3113092529,0.8500396796\H,0,-
 4.4252031669,3.1981544161,1.0872153076\N,0,-5.2121702213,-0.1781660495
 ,1.9934443526\H,0,-5.8536322628,0.5932815331,2.1185236209\O,0,-5.97554
 40145,-0.4780588459,-0.6128738191\N,0,-3.8930205128,-0.1494916297,-1.4
 382078816\H,0,-2.9363290397,0.0509830564,-1.205625238\C,0,-4.245702114
 8,-0.3296237279,-2.8251676883\H,0,-4.0464153734,0.5700379315,-3.409019
 0545\H,0,-3.7029764452,-1.1649607218,-3.2697132638\H,0,-5.3111426323,-
 0.5430872151,-2.8657072837\C,0,-5.7351441279,-1.3803018254,2.400136617
 6\C,0,-4.9789425461,-2.612900634,1.9858101621\H,0,-3.927983623,-2.5585
 852144,2.2752536396\H,0,-5.4379796006,-3.4715173739,2.4663831707\H,0,-
 5.0254576373,-2.7452750668,0.9035536222\O,0,-6.7280937133,-1.426896572
 8,3.0856247717\\Version=EM64L-G09RevA.02\State=1-A\HF=-570.9080497\RMS
 D=4.181e-09\Dipole=2.7807559,0.9535235,-1.0237943\Quadrupole=-3.497471
 8,6.164712,-2.6672402,-0.3361382,2.3463792,3.6048882\PG=C01 [X(C6H12N2
 O3)]\\@


 MEN HAVE BECOME THE TOOLS OF THEIR TOOLS... THOREAU   
 Job cpu time:  2 days  3 hours  9 minutes 43.7 seconds.
 File lengths (MBytes):  RWF=   1196 Int=      0 D2E=      0 Chk=     36 Scr=      4
 Normal termination of Gaussian 09 at Sun Feb 24 02:55:57 2013.
