 Entering Gaussian System, Link 0=g09
 Input=threonine.gjf
 Output=threonine.log
 Initial command:
 /system/software/linux-x86_64/gaussian/g09/A.02__pgi_8.0-6__acml/l1.exe /export/home/spin_dynamics/kuprov/zenawi/Gau-52550.inp -scrdir=/export/home/spin_dynamics/kuprov/zenawi/
 Entering Link 1 = /system/software/linux-x86_64/gaussian/g09/A.02__pgi_8.0-6__acml/l1.exe PID=     52551.
  
 Copyright (c) 1988,1990,1992,1993,1995,1998,2003,2009, Gaussian, Inc.
                  All Rights Reserved.
  
 This is part of the Gaussian(R) 09 program.  It is based on
 the Gaussian(R) 03 system (copyright 2003, Gaussian, Inc.),
 the Gaussian(R) 98 system (copyright 1998, Gaussian, Inc.),
 the Gaussian(R) 94 system (copyright 1995, Gaussian, Inc.),
 the Gaussian 92(TM) system (copyright 1992, Gaussian, Inc.),
 the Gaussian 90(TM) system (copyright 1990, Gaussian, Inc.),
 the Gaussian 88(TM) system (copyright 1988, Gaussian, Inc.),
 the Gaussian 86(TM) system (copyright 1986, Carnegie Mellon
 University), and the Gaussian 82(TM) system (copyright 1983,
 Carnegie Mellon University). Gaussian is a federally registered
 trademark of Gaussian, Inc.
  
 This software contains proprietary and confidential information,
 including trade secrets, belonging to Gaussian, Inc.
  
 This software is provided under written license and may be
 used, copied, transmitted, or stored only in accord with that
 written license.
  
 The following legend is applicable only to US Government
 contracts under FAR:
  
                    RESTRICTED RIGHTS LEGEND
  
 Use, reproduction and disclosure by the US Government is
 subject to restrictions as set forth in subparagraphs (a)
 and (c) of the Commercial Computer Software - Restricted
 Rights clause in FAR 52.227-19.
  
 Gaussian, Inc.
 340 Quinnipiac St., Bldg. 40, Wallingford CT 06492
  
  
 ---------------------------------------------------------------
 Warning -- This program may not be used in any manner that
 competes with the business of Gaussian, Inc. or will provide
 assistance to any competitor of Gaussian, Inc.  The licensee
 of this program is prohibited from giving any competitor of
 Gaussian, Inc. access to this program.  By using this program,
 the user acknowledges that Gaussian, Inc. is engaged in the
 business of creating and licensing software in the field of
 computational chemistry and represents and warrants to the
 licensee that it is not a competitor of Gaussian, Inc. and that
 it will not use this program in any manner prohibited above.
 ---------------------------------------------------------------
  

 Cite this work as:
 Gaussian 09, Revision A.02,
 M. J. Frisch, G. W. Trucks, H. B. Schlegel, G. E. Scuseria, 
 M. A. Robb, J. R. Cheeseman, G. Scalmani, V. Barone, B. Mennucci, 
 G. A. Petersson, H. Nakatsuji, M. Caricato, X. Li, H. P. Hratchian, 
 A. F. Izmaylov, J. Bloino, G. Zheng, J. L. Sonnenberg, M. Hada, 
 M. Ehara, K. Toyota, R. Fukuda, J. Hasegawa, M. Ishida, T. Nakajima, 
 Y. Honda, O. Kitao, H. Nakai, T. Vreven, J. A. Montgomery, Jr., 
 J. E. Peralta, F. Ogliaro, M. Bearpark, J. J. Heyd, E. Brothers, 
 K. N. Kudin, V. N. Staroverov, R. Kobayashi, J. Normand, 
 K. Raghavachari, A. Rendell, J. C. Burant, S. S. Iyengar, J. Tomasi, 
 M. Cossi, N. Rega, J. M. Millam, M. Klene, J. E. Knox, J. B. Cross, 
 V. Bakken, C. Adamo, J. Jaramillo, R. Gomperts, R. E. Stratmann, 
 O. Yazyev, A. J. Austin, R. Cammi, C. Pomelli, J. W. Ochterski, 
 R. L. Martin, K. Morokuma, V. G. Zakrzewski, G. A. Voth, 
 P. Salvador, J. J. Dannenberg, S. Dapprich, A. D. Daniels, 
 O. Farkas, J. B. Foresman, J. V. Ortiz, J. Cioslowski, 
 and D. J. Fox, Gaussian, Inc., Wallingford CT, 2009.
 
 ******************************************
 Gaussian 09:  EM64L-G09RevA.02 11-Jun-2009
                 7-Apr-2013 
 ******************************************
 %chk=threonine.chk
 %mem=64GB
 %nprocshared=16
 Will use up to   16 processors via shared memory.
 ------------------------------------------------------------
 #p opt=tight m06/cc-pvtz scf=tight integral=(grid=ultrafine)
 ------------------------------------------------------------
 1/7=10,14=-1,18=20,19=15,26=3,38=1/1,3;
 2/9=110,12=2,17=6,18=5,40=1/2;
 3/5=16,6=1,11=2,16=1,25=1,30=1,71=1,74=-54,75=-5/1,2,3;
 4//1;
 5/5=2,32=2,38=5/2;
 6/7=2,8=2,9=2,10=2,28=1/1;
 7//1,2,3,16;
 1/7=10,14=-1,18=20,19=15/3(2);
 2/9=110/2;
 99//99;
 2/9=110/2;
 3/5=16,6=1,11=2,16=1,25=1,30=1,71=1,74=-54,75=-5/1,2,3;
 4/5=5,16=3/1;
 5/5=2,32=2,38=5/2;
 7//1,2,3,16;
 1/7=10,14=-1,18=20,19=15/3(-5);
 2/9=110/2;
 6/7=2,8=2,9=2,10=2,19=2,28=1/1;
 99/9=1/99;
 Leave Link    1 at Sun Apr  7 00:57:38 2013, MaxMem= 8589934592 cpu:       1.8
 (Enter /system/software/linux-x86_64/gaussian/g09/A.02__pgi_8.0-6__acml/l101.exe)
 ---------------------
 Geometry optimisation
 ---------------------
 Symbolic Z-matrix:
 Charge =  0 Multiplicity = 1
 C                    -0.29255  -1.76984   1.01986 
 H                     0.39648  -0.9565    0.92706 
 C                    -1.69541  -1.30627   0.58546 
 H                    -2.38444  -2.11961   0.67827 
 C                    -2.15213  -0.14156   1.48348 
 O                    -1.59148   0.98128   1.39133 
 N                    -1.65192  -0.85817  -0.8139 
 H                    -2.56286  -0.55716  -1.09598 
 C                     0.16417  -2.93455   0.12185 
 H                     0.19583  -2.60838  -0.89674 
 H                     1.13888  -3.25664   0.42367 
 H                    -0.52486  -3.74789   0.21466 
 O                    -0.33486  -2.20575   2.38115 
 H                     0.53965  -2.49472   2.65194 
 C                    -0.7053    0.25922  -0.9414 
 C                    -0.92927   1.33932  -2.01603 
 H                    -1.97763   1.44549  -2.20195 
 H                    -0.53166   2.27159  -1.673 
 H                    -0.43413   1.05133  -2.9198 
 N                    -3.24301  -0.34142   2.44833 
 H                    -2.86364  -0.64593   3.32203 
 C                    -3.96407   0.92487   2.64192 
 H                    -4.75812   0.7794    3.34423 
 H                    -3.28896   1.66625   3.01539 
 H                    -4.37      1.2507    1.70706 
 O                     0.28807   0.33317  -0.17243 
 
 NAtoms=     26 NQM=     26 NQMF=      0 NMic=      0 NMicF=      0 NTot=     26.
                    Isotopes and Nuclear Properties:
 (Nuclear quadrupole moments (NQMom) in fm**2, nuclear magnetic moments (NMagM)
  in nuclear magnetons)

  Atom         1           2           3           4           5           6           7           8           9          10
 IAtWgt=          12           1          12           1          12          16          14           1          12           1
 AtmWgt=  12.0000000   1.0078250  12.0000000   1.0078250  12.0000000  15.9949146  14.0030740   1.0078250  12.0000000   1.0078250
 NucSpn=           0           1           0           1           0           0           2           1           0           1
 AtZEff=   0.0000000   0.0000000   0.0000000   0.0000000   0.0000000   0.0000000   0.0000000   0.0000000   0.0000000   0.0000000
 NQMom=    0.0000000   0.0000000   0.0000000   0.0000000   0.0000000   0.0000000   2.0440000   0.0000000   0.0000000   0.0000000
 NMagM=    0.0000000   2.7928460   0.0000000   2.7928460   0.0000000   0.0000000   0.4037610   2.7928460   0.0000000   2.7928460

  Atom        11          12          13          14          15          16          17          18          19          20
 IAtWgt=           1           1          16           1          12          12           1           1           1          14
 AtmWgt=   1.0078250   1.0078250  15.9949146   1.0078250  12.0000000  12.0000000   1.0078250   1.0078250   1.0078250  14.0030740
 NucSpn=           1           1           0           1           0           0           1           1           1           2
 AtZEff=   0.0000000   0.0000000   0.0000000   0.0000000   0.0000000   0.0000000   0.0000000   0.0000000   0.0000000   0.0000000
 NQMom=    0.0000000   0.0000000   0.0000000   0.0000000   0.0000000   0.0000000   0.0000000   0.0000000   0.0000000   2.0440000
 NMagM=    2.7928460   2.7928460   0.0000000   2.7928460   0.0000000   0.0000000   2.7928460   2.7928460   2.7928460   0.4037610

  Atom        21          22          23          24          25          26
 IAtWgt=           1          12           1           1           1          16
 AtmWgt=   1.0078250  12.0000000   1.0078250   1.0078250   1.0078250  15.9949146
 NucSpn=           1           0           1           1           1           0
 AtZEff=   0.0000000   0.0000000   0.0000000   0.0000000   0.0000000   0.0000000
 NQMom=    0.0000000   0.0000000   0.0000000   0.0000000   0.0000000   0.0000000
 NMagM=    2.7928460   0.0000000   2.7928460   2.7928460   2.7928460   0.0000000
 Leave Link  101 at Sun Apr  7 00:57:38 2013, MaxMem= 8589934592 cpu:       3.3
 (Enter /system/software/linux-x86_64/gaussian/g09/A.02__pgi_8.0-6__acml/l103.exe)

 GradGradGradGradGradGradGradGradGradGradGradGradGradGradGradGradGradGrad
 Berny optimization.
 Initialization pass.
                           ----------------------------
                           !    Initial Parameters    !
                           ! (Angstroms and Degrees)  !
 --------------------------                            --------------------------
 ! Name  Definition              Value          Derivative Info.                !
 --------------------------------------------------------------------------------
 ! R1    R(1,2)                  1.07           estimate D2E/DX2                !
 ! R2    R(1,3)                  1.54           estimate D2E/DX2                !
 ! R3    R(1,9)                  1.54           estimate D2E/DX2                !
 ! R4    R(1,13)                 1.43           estimate D2E/DX2                !
 ! R5    R(2,26)                 1.6982         estimate D2E/DX2                !
 ! R6    R(3,4)                  1.07           estimate D2E/DX2                !
 ! R7    R(3,5)                  1.54           estimate D2E/DX2                !
 ! R8    R(3,7)                  1.47           estimate D2E/DX2                !
 ! R9    R(5,6)                  1.2584         estimate D2E/DX2                !
 ! R10   R(5,20)                 1.47           estimate D2E/DX2                !
 ! R11   R(7,8)                  1.0            estimate D2E/DX2                !
 ! R12   R(7,15)                 1.47           estimate D2E/DX2                !
 ! R13   R(9,10)                 1.07           estimate D2E/DX2                !
 ! R14   R(9,11)                 1.07           estimate D2E/DX2                !
 ! R15   R(9,12)                 1.07           estimate D2E/DX2                !
 ! R16   R(13,14)                0.96           estimate D2E/DX2                !
 ! R17   R(15,16)                1.54           estimate D2E/DX2                !
 ! R18   R(15,26)                1.2584         estimate D2E/DX2                !
 ! R19   R(16,17)                1.07           estimate D2E/DX2                !
 ! R20   R(16,18)                1.07           estimate D2E/DX2                !
 ! R21   R(16,19)                1.07           estimate D2E/DX2                !
 ! R22   R(20,21)                1.0            estimate D2E/DX2                !
 ! R23   R(20,22)                1.47           estimate D2E/DX2                !
 ! R24   R(22,23)                1.07           estimate D2E/DX2                !
 ! R25   R(22,24)                1.07           estimate D2E/DX2                !
 ! R26   R(22,25)                1.07           estimate D2E/DX2                !
 ! A1    A(2,1,3)              109.4712         estimate D2E/DX2                !
 ! A2    A(2,1,9)              109.4712         estimate D2E/DX2                !
 ! A3    A(2,1,13)             109.4712         estimate D2E/DX2                !
 ! A4    A(3,1,9)              109.4712         estimate D2E/DX2                !
 ! A5    A(3,1,13)             109.4712         estimate D2E/DX2                !
 ! A6    A(9,1,13)             109.4712         estimate D2E/DX2                !
 ! A7    A(1,3,4)              109.4712         estimate D2E/DX2                !
 ! A8    A(1,3,5)              109.4712         estimate D2E/DX2                !
 ! A9    A(1,3,7)              109.4712         estimate D2E/DX2                !
 ! A10   A(4,3,5)              109.4712         estimate D2E/DX2                !
 ! A11   A(4,3,7)              109.4712         estimate D2E/DX2                !
 ! A12   A(5,3,7)              109.4712         estimate D2E/DX2                !
 ! A13   A(3,5,6)              120.0            estimate D2E/DX2                !
 ! A14   A(3,5,20)             120.0            estimate D2E/DX2                !
 ! A15   A(6,5,20)             120.0            estimate D2E/DX2                !
 ! A16   A(3,7,8)              109.4712         estimate D2E/DX2                !
 ! A17   A(3,7,15)             109.4712         estimate D2E/DX2                !
 ! A18   A(8,7,15)             109.4712         estimate D2E/DX2                !
 ! A19   A(1,9,10)             109.4712         estimate D2E/DX2                !
 ! A20   A(1,9,11)             109.4712         estimate D2E/DX2                !
 ! A21   A(1,9,12)             109.4712         estimate D2E/DX2                !
 ! A22   A(10,9,11)            109.4712         estimate D2E/DX2                !
 ! A23   A(10,9,12)            109.4712         estimate D2E/DX2                !
 ! A24   A(11,9,12)            109.4712         estimate D2E/DX2                !
 ! A25   A(1,13,14)            109.4712         estimate D2E/DX2                !
 ! A26   A(7,15,16)            120.0            estimate D2E/DX2                !
 ! A27   A(7,15,26)            120.0            estimate D2E/DX2                !
 ! A28   A(16,15,26)           120.0            estimate D2E/DX2                !
 ! A29   A(15,16,17)           109.4712         estimate D2E/DX2                !
 ! A30   A(15,16,18)           109.4712         estimate D2E/DX2                !
 ! A31   A(15,16,19)           109.4712         estimate D2E/DX2                !
 ! A32   A(17,16,18)           109.4712         estimate D2E/DX2                !
 ! A33   A(17,16,19)           109.4712         estimate D2E/DX2                !
 ! A34   A(18,16,19)           109.4712         estimate D2E/DX2                !
 ! A35   A(5,20,21)            109.4712         estimate D2E/DX2                !
 ! A36   A(5,20,22)            109.4712         estimate D2E/DX2                !
 ! A37   A(21,20,22)           109.4712         estimate D2E/DX2                !
 ! A38   A(20,22,23)           109.4712         estimate D2E/DX2                !
 ! A39   A(20,22,24)           109.4712         estimate D2E/DX2                !
 ! A40   A(20,22,25)           109.4712         estimate D2E/DX2                !
 ! A41   A(23,22,24)           109.4712         estimate D2E/DX2                !
 ! A42   A(23,22,25)           109.4712         estimate D2E/DX2                !
 ! A43   A(24,22,25)           109.4712         estimate D2E/DX2                !
 ! D1    D(2,1,3,4)           -180.0            estimate D2E/DX2                !
 ! D2    D(2,1,3,5)            -60.0            estimate D2E/DX2                !
 ! D3    D(2,1,3,7)             60.0            estimate D2E/DX2                !
 ! D4    D(9,1,3,4)             60.0            estimate D2E/DX2                !
 ! D5    D(9,1,3,5)            180.0            estimate D2E/DX2                !
 ! D6    D(9,1,3,7)            -60.0            estimate D2E/DX2                !
 ! D7    D(13,1,3,4)           -60.0            estimate D2E/DX2                !
 ! D8    D(13,1,3,5)            60.0            estimate D2E/DX2                !
 ! D9    D(13,1,3,7)           180.0            estimate D2E/DX2                !
 ! D10   D(2,1,9,10)           -60.0            estimate D2E/DX2                !
 ! D11   D(2,1,9,11)            60.0            estimate D2E/DX2                !
 ! D12   D(2,1,9,12)           180.0            estimate D2E/DX2                !
 ! D13   D(3,1,9,10)            60.0            estimate D2E/DX2                !
 ! D14   D(3,1,9,11)           180.0            estimate D2E/DX2                !
 ! D15   D(3,1,9,12)           -60.0            estimate D2E/DX2                !
 ! D16   D(13,1,9,10)          180.0            estimate D2E/DX2                !
 ! D17   D(13,1,9,11)          -60.0            estimate D2E/DX2                !
 ! D18   D(13,1,9,12)           60.0            estimate D2E/DX2                !
 ! D19   D(2,1,13,14)          -60.0            estimate D2E/DX2                !
 ! D20   D(3,1,13,14)          180.0            estimate D2E/DX2                !
 ! D21   D(9,1,13,14)           60.0            estimate D2E/DX2                !
 ! D22   D(1,3,5,6)             69.7            estimate D2E/DX2                !
 ! D23   D(1,3,5,20)          -110.3            estimate D2E/DX2                !
 ! D24   D(4,3,5,6)           -170.3            estimate D2E/DX2                !
 ! D25   D(4,3,5,20)             9.7            estimate D2E/DX2                !
 ! D26   D(7,3,5,6)            -50.3            estimate D2E/DX2                !
 ! D27   D(7,3,5,20)           129.7            estimate D2E/DX2                !
 ! D28   D(1,3,7,8)            180.0            estimate D2E/DX2                !
 ! D29   D(1,3,7,15)           -60.0            estimate D2E/DX2                !
 ! D30   D(4,3,7,8)             60.0            estimate D2E/DX2                !
 ! D31   D(4,3,7,15)           180.0            estimate D2E/DX2                !
 ! D32   D(5,3,7,8)            -60.0            estimate D2E/DX2                !
 ! D33   D(5,3,7,15)            60.0            estimate D2E/DX2                !
 ! D34   D(3,5,20,21)           90.0            estimate D2E/DX2                !
 ! D35   D(3,5,20,22)         -150.0            estimate D2E/DX2                !
 ! D36   D(6,5,20,21)          -90.0            estimate D2E/DX2                !
 ! D37   D(6,5,20,22)           30.0            estimate D2E/DX2                !
 ! D38   D(3,7,15,16)         -150.0            estimate D2E/DX2                !
 ! D39   D(3,7,15,26)           30.0            estimate D2E/DX2                !
 ! D40   D(8,7,15,16)          -30.0            estimate D2E/DX2                !
 ! D41   D(8,7,15,26)          150.0            estimate D2E/DX2                !
 ! D42   D(7,15,16,17)          30.0            estimate D2E/DX2                !
 ! D43   D(7,15,16,18)         150.0            estimate D2E/DX2                !
 ! D44   D(7,15,16,19)         -90.0            estimate D2E/DX2                !
 ! D45   D(26,15,16,17)       -150.0            estimate D2E/DX2                !
 ! D46   D(26,15,16,18)        -30.0            estimate D2E/DX2                !
 ! D47   D(26,15,16,19)         90.0            estimate D2E/DX2                !
 ! D48   D(5,20,22,23)         180.0            estimate D2E/DX2                !
 ! D49   D(5,20,22,24)         -60.0            estimate D2E/DX2                !
 ! D50   D(5,20,22,25)          60.0            estimate D2E/DX2                !
 ! D51   D(21,20,22,23)        -60.0            estimate D2E/DX2                !
 ! D52   D(21,20,22,24)         60.0            estimate D2E/DX2                !
 ! D53   D(21,20,22,25)        180.0            estimate D2E/DX2                !
 --------------------------------------------------------------------------------
 Trust Radius=3.00D-01 FncErr=1.00D-07 GrdErr=1.00D-06
 Number of steps in this run= 132 maximum allowed number of steps= 156.
 GradGradGradGradGradGradGradGradGradGradGradGradGradGradGradGradGradGrad

 Leave Link  103 at Sun Apr  7 00:57:38 2013, MaxMem= 8589934592 cpu:       0.3
 (Enter /system/software/linux-x86_64/gaussian/g09/A.02__pgi_8.0-6__acml/l202.exe)
                          Input orientation:                          
 ---------------------------------------------------------------------
 Center     Atomic      Atomic             Coordinates (Angstroms)
 Number     Number       Type             X           Y           Z
 ---------------------------------------------------------------------
      1          6           0       -0.292550   -1.769836    1.019865
      2          1           0        0.396485   -0.956498    0.927055
      3          6           0       -1.695406   -1.306274    0.585462
      4          1           0       -2.384440   -2.119612    0.678271
      5          6           0       -2.152128   -0.141556    1.483480
      6          8           0       -1.591481    0.981276    1.391327
      7          7           0       -1.651915   -0.858170   -0.813899
      8          1           0       -2.562861   -0.557156   -1.095979
      9          6           0        0.164173   -2.934554    0.121846
     10          1           0        0.195829   -2.608383   -0.896736
     11          1           0        1.138885   -3.256639    0.423672
     12          1           0       -0.524861   -3.747892    0.214656
     13          8           0       -0.334856   -2.205747    2.381148
     14          1           0        0.539651   -2.494720    2.651944
     15          6           0       -0.705298    0.259219   -0.941404
     16          6           0       -0.929265    1.339318   -2.016032
     17          1           0       -1.977627    1.445488   -2.201951
     18          1           0       -0.531658    2.271593   -1.672999
     19          1           0       -0.434125    1.051332   -2.919801
     20          7           0       -3.243011   -0.341417    2.448327
     21          1           0       -2.863642   -0.645926    3.322028
     22          6           0       -3.964072    0.924873    2.641922
     23          1           0       -4.758115    0.779396    3.344226
     24          1           0       -3.288956    1.666249    3.015395
     25          1           0       -4.369997    1.250697    1.707062
     26          8           0        0.288071    0.333170   -0.172431
 ---------------------------------------------------------------------
                    Distance matrix (angstroms):
                    1          2          3          4          5
     1  C    0.000000
     2  H    1.070000   0.000000
     3  C    1.540000   2.148263   0.000000
     4  H    2.148263   3.024610   1.070000   0.000000
     5  C    2.514809   2.732978   1.540000   2.148263   0.000000
     6  O    3.064935   2.814698   2.427572   3.279137   1.258400
     7  N    2.457987   2.690081   1.470000   2.086720   2.457987
     8  H    3.331921   3.606919   2.034920   2.370879   2.644813
     9  C    1.540000   2.148263   2.514809   2.732978   3.875582
    10  H    2.148263   2.468846   2.732978   3.062243   4.154945
    11  H    2.148263   2.468846   3.444314   3.710993   4.653783
    12  H    2.148263   3.024610   2.732978   2.514809   4.154945
    13  O    1.430000   2.051796   2.425826   2.666083   2.892951
    14  H    1.970203   2.315570   3.267757   3.547732   3.761431
    15  C    2.852017   2.486571   2.400500   3.331921   2.852017
    16  C    4.391914   3.961079   3.788654   4.619632   3.991862
    17  H    4.853647   4.603979   3.927023   4.601208   4.016411
    18  H    4.862288   4.247624   4.388176   5.314504   4.290988
    19  H    4.847680   4.418099   4.408628   5.177329   4.874772
    20  N    3.575767   3.992308   2.606971   2.651833   1.470000
    21  H    3.629552   4.057188   3.047890   3.064448   2.034920
    22  C    4.834522   5.049236   3.788654   3.952222   2.400500
    23  H    5.642918   5.951970   4.619632   4.598468   3.331921
    24  H    4.976673   4.982212   4.156906   4.540158   2.628174
    25  H    5.120687   5.310317   3.866462   4.044729   2.628174
    26  O    2.486226   1.698195   2.682602   3.725875   2.986968
                    6          7          8          9         10
     6  O    0.000000
     7  N    2.872323   0.000000
     8  H    3.081728   1.000000   0.000000
     9  C    4.475224   2.912931   3.817307   0.000000
    10  H    4.616857   2.546422   3.443487   1.070000   0.000000
    11  H    5.133340   3.882370   4.826952   1.070000   1.747303
    12  H    4.988714   3.267823   4.006495   1.070000   1.747303
    13  O    3.565945   3.709304   4.446602   2.425826   3.344887
    14  H    4.267720   4.415126   5.237048   2.595348   3.567109
    15  C    2.597753   1.470000   2.034920   3.476588   3.006188
    16  C    3.489530   2.606971   2.666785   4.902256   4.254763
    17  H    3.643658   2.709173   2.361410   5.401121   4.781356
    18  H    3.489733   3.433431   3.529952   5.550641   4.994596
    19  H    4.464326   3.092577   3.231884   5.049442   4.228847
    20  N    2.365231   3.666162   3.615419   4.872964   5.306054
    21  H    2.827328   4.315000   4.429124   4.964539   5.568624
    22  C    2.682602   4.524159   4.258135   6.187759   6.504674
    23  H    3.725875   5.442436   5.130394   6.957448   7.348767
    24  H    2.447081   4.869917   4.730131   6.439263   6.761729
    25  H    2.809346   4.265037   3.793563   6.370866   6.520662
    26  O    2.529446   2.365231   3.126249   3.283286   3.030818
                   11         12         13         14         15
    11  H    0.000000
    12  H    1.747303   0.000000
    13  O    2.666083   2.666083   0.000000
    14  H    2.429979   2.940068   0.960000   0.000000
    15  C    4.198297   4.174442   4.153629   4.695342   0.000000
    16  C    5.599305   5.569489   5.679436   6.216717   1.540000
    17  H    6.222262   5.909459   6.085639   6.739602   2.148263
    18  H    6.143948   6.308525   6.043295   6.524614   2.148263
    19  H    5.675543   5.732853   6.222417   6.675858   2.148263
    20  N    5.639039   4.897111   3.455083   4.357374   4.276801
    21  H    5.588963   4.974721   3.116577   3.930580   4.863598
    22  C    6.960305   6.289239   4.799999   5.654842   4.889062
    23  H    7.719704   6.943414   5.422529   6.266213   5.921363
    24  H    7.110389   6.693077   4.911346   5.666038   4.930647
    25  H    7.232631   6.480605   5.355722   6.247047   4.628976
    26  O    3.737104   4.179205   3.654435   4.004666   1.258400
                   16         17         18         19         20
    16  C    0.000000
    17  H    1.070000   0.000000
    18  H    1.070000   1.747303   0.000000
    19  H    1.070000   1.747303   1.747303   0.000000
    20  N    5.301772   5.139972   5.582526   6.216622   0.000000
    21  H    6.014806   5.972720   6.237016   6.909679   1.000000
    22  C    5.574796   5.261189   5.675709   6.588572   1.470000
    23  H    6.611049   6.239782   6.727715   7.616356   2.086720
    24  H    5.566891   5.384145   5.472675   6.614736   2.086720
    25  H    5.070297   4.587130   5.215352   6.077722   2.086720
    26  O    2.427572   3.238764   2.584792   2.930080   4.448818
                   21         22         23         24         25
    21  H    0.000000
    22  C    2.034920   0.000000
    23  H    2.370879   1.070000   0.000000
    24  H    2.370879   1.070000   1.747303   0.000000
    25  H    2.911082   1.070000   1.747303   1.747303   0.000000
    26  O    4.806575   5.133362   6.166846   4.973374   5.106069
                   26
    26  O    0.000000
 Stoichiometry    C7H14N2O3
 Framework group  C1[X(C7H14N2O3)]
 Deg. of freedom    72
 Full point group                 C1      NOp   1
 Largest Abelian subgroup         C1      NOp   1
 Largest concise Abelian subgroup C1      NOp   1
                         Standard orientation:                         
 ---------------------------------------------------------------------
 Center     Atomic      Atomic             Coordinates (Angstroms)
 Number     Number       Type             X           Y           Z
 ---------------------------------------------------------------------
      1          6           0       -0.871365   -1.437326   -0.215011
      2          1           0       -1.169815   -0.880407   -1.078532
      3          6           0       -0.069185   -0.525480    0.731903
      4          1           0        0.229265   -1.082399    1.595424
      5          6           0        1.181252   -0.000701    0.002100
      6          8           0        1.060435    0.830689   -0.934791
      7          7           0       -0.907088    0.609104    1.146072
      8          1           0       -0.386193    1.201212    1.760951
      9          6           0       -2.121803   -1.962106    0.514792
     10          1           0       -2.731705   -1.136251    0.816262
     11          1           0       -2.679161   -2.595661   -0.143129
     12          1           0       -1.823353   -2.519024    1.378313
     13          8           0       -0.056262   -2.541038   -0.617910
     14          1           0       -0.556322   -3.109461   -1.208194
     15          6           0       -1.317108    1.374217   -0.040261
     16          6           0       -1.571986    2.888927    0.070609
     17          1           0       -0.948970    3.300277    0.837121
     18          1           0       -1.344770    3.358175   -0.863778
     19          1           0       -2.599311    3.060756    0.315517
     20          7           0        2.515984   -0.470962    0.399900
     21          1           0        2.753992   -1.285249   -0.129523
     22          6           0        3.504552    0.586369    0.143613
     23          1           0        4.476092    0.244070    0.433168
     24          1           0        3.507251    0.827003   -0.898974
     25          1           0        3.249884    1.457656    0.710095
     26          8           0       -1.459836    0.791461   -1.146423
 ---------------------------------------------------------------------
 Rotational constants (GHZ):      1.0448517      0.8465170      0.5563474
 Leave Link  202 at Sun Apr  7 00:57:38 2013, MaxMem= 8589934592 cpu:       0.1
 (Enter /system/software/linux-x86_64/gaussian/g09/A.02__pgi_8.0-6__acml/l301.exe)
 Standard basis: CC-pVTZ (5D, 7F)
 Ernie: Thresh=  0.10000D-02 Tol=  0.10000D-05 Strict=F.
 Ernie:  36 primitive shells out of 424 were deleted.
 There are   556 symmetry adapted basis functions of A   symmetry.
 Integral buffers will be    131072 words long.
 Raffenetti 2 integral format.
 Two-electron integral symmetry is turned on.
   556 basis functions,   862 primitive gaussians,   630 cartesian basis functions
    47 alpha electrons       47 beta electrons
       nuclear repulsion energy       785.1572131495 Hartrees.
 IExCor= 4235 DFT=T Ex+Corr=M06 ExCW=0 ScaHFX=  0.270000
 ScaDFX=  1.000000  1.000000  1.000000  1.000000 ScalE2=  1.000000  1.000000
 IRadAn=      5 IRanWt=     -1 IRanGd=            0 ICorTp=0
 NAtoms=   26 NActive=   26 NUniq=   26 SFac= 7.50D-01 NAtFMM=   80 NAOKFM=F Big=F
 Leave Link  301 at Sun Apr  7 00:57:39 2013, MaxMem= 8589934592 cpu:       1.8
 (Enter /system/software/linux-x86_64/gaussian/g09/A.02__pgi_8.0-6__acml/l302.exe)
 NPDir=0 NMtPBC=     1 NCelOv=     1 NCel=       1 NClECP=     1 NCelD=      1
         NCelK=      1 NCelE2=     1 NClLst=     1 CellRange=     0.0.
 One-electron integrals computed using PRISM.
 NBasis=   556 RedAO= T  NBF=   556
 NBsUse=   556 1.00D-06 NBFU=   556
 Precomputing XC quadrature grid using
 IXCGrd= 2 IRadAn=           5 IRanWt=          -1 IRanGd=           0 AccXCQ= 1.00D-10.
 NRdTot=    2180 NPtTot=      585960 NUsed=      601571 NTot=      601603
 NSgBfM=   629   629   629   629   629 NAtAll=    26    26.
 Leave Link  302 at Sun Apr  7 00:57:40 2013, MaxMem= 8589934592 cpu:      22.4
 (Enter /system/software/linux-x86_64/gaussian/g09/A.02__pgi_8.0-6__acml/l303.exe)
 DipDrv:  MaxL=1.
 Leave Link  303 at Sun Apr  7 00:57:41 2013, MaxMem= 8589934592 cpu:       3.8
 (Enter /system/software/linux-x86_64/gaussian/g09/A.02__pgi_8.0-6__acml/l401.exe)
 Harris functional with IExCor= 1009 diagonalized for initial guess.
 ExpMin= 1.03D-01 ExpMax= 1.53D+04 ExpMxC= 5.22D+02 IAcc=3 IRadAn=         5 AccDes= 0.00D+00
 HarFok:  IExCor= 1009 AccDes= 0.00D+00 IRadAn=         5 IDoV= 1
 ScaDFX=  1.000000  1.000000  1.000000  1.000000
 FoFCou: FMM=F IPFlag=           0 FMFlag=      100000 FMFlg1=           0
         NFxFlg=           0 DoJE=T BraDBF=F KetDBF=T FulRan=T
         Omega=  0.000000  0.000000  1.000000  0.000000  0.000000 ICntrl=     500 IOpCl=  0
         NMat0=    1 NMatS0=    1 NMatT0=    0 NMatD0=    1 NMtDS0=    0 NMtDT0=    0
         I1Cent=           4 NGrid=           0.
 Petite list used in FoFCou.
 Harris En= -610.116772231236    
 Initial guess orbital symmetries:
       Occupied  (A) (A) (A) (A) (A) (A) (A) (A) (A) (A) (A) (A)
                 (A) (A) (A) (A) (A) (A) (A) (A) (A) (A) (A) (A)
                 (A) (A) (A) (A) (A) (A) (A) (A) (A) (A) (A) (A)
                 (A) (A) (A) (A) (A) (A) (A) (A) (A) (A) (A)
       Virtual   (A) (A) (A) (A) (A) (A) (A) (A) (A) (A) (A) (A)
                 (A) (A) (A) (A) (A) (A) (A) (A) (A) (A) (A) (A)
                 (A) (A) (A) (A) (A) (A) (A) (A) (A) (A) (A) (A)
                 (A) (A) (A) (A) (A) (A) (A) (A) (A) (A) (A) (A)
                 (A) (A) (A) (A) (A) (A) (A) (A) (A) (A) (A) (A)
                 (A) (A) (A) (A) (A) (A) (A) (A) (A) (A) (A) (A)
                 (A) (A) (A) (A) (A) (A) (A) (A) (A) (A) (A) (A)
                 (A) (A) (A) (A) (A) (A) (A) (A) (A) (A) (A) (A)
                 (A) (A) (A) (A) (A) (A) (A) (A) (A) (A) (A) (A)
                 (A) (A) (A) (A) (A) (A) (A) (A) (A) (A) (A) (A)
                 (A) (A) (A) (A) (A) (A) (A) (A) (A) (A) (A) (A)
                 (A) (A) (A) (A) (A) (A) (A) (A) (A) (A) (A) (A)
                 (A) (A) (A) (A) (A) (A) (A) (A) (A) (A) (A) (A)
                 (A) (A) (A) (A) (A) (A) (A) (A) (A) (A) (A) (A)
                 (A) (A) (A) (A) (A) (A) (A) (A) (A) (A) (A) (A)
                 (A) (A) (A) (A) (A) (A) (A) (A) (A) (A) (A) (A)
                 (A) (A) (A) (A) (A) (A) (A) (A) (A) (A) (A) (A)
                 (A) (A) (A) (A) (A) (A) (A) (A) (A) (A) (A) (A)
                 (A) (A) (A) (A) (A) (A) (A) (A) (A) (A) (A) (A)
                 (A) (A) (A) (A) (A) (A) (A) (A) (A) (A) (A) (A)
                 (A) (A) (A) (A) (A) (A) (A) (A) (A) (A) (A) (A)
                 (A) (A) (A) (A) (A) (A) (A) (A) (A) (A) (A) (A)
                 (A) (A) (A) (A) (A) (A) (A) (A) (A) (A) (A) (A)
                 (A) (A) (A) (A) (A) (A) (A) (A) (A) (A) (A) (A)
                 (A) (A) (A) (A) (A) (A) (A) (A) (A) (A) (A) (A)
                 (A) (A) (A) (A) (A) (A) (A) (A) (A) (A) (A) (A)
                 (A) (A) (A) (A) (A) (A) (A) (A) (A) (A) (A) (A)
                 (A) (A) (A) (A) (A) (A) (A) (A) (A) (A) (A) (A)
                 (A) (A) (A) (A) (A) (A) (A) (A) (A) (A) (A) (A)
                 (A) (A) (A) (A) (A) (A) (A) (A) (A) (A) (A) (A)
                 (A) (A) (A) (A) (A) (A) (A) (A) (A) (A) (A) (A)
                 (A) (A) (A) (A) (A) (A) (A) (A) (A) (A) (A) (A)
                 (A) (A) (A) (A) (A) (A) (A) (A) (A) (A) (A) (A)
                 (A) (A) (A) (A) (A) (A) (A) (A) (A) (A) (A) (A)
                 (A) (A) (A) (A) (A) (A) (A) (A) (A) (A) (A) (A)
                 (A) (A) (A) (A) (A) (A) (A) (A) (A) (A) (A) (A)
                 (A) (A) (A) (A) (A) (A) (A) (A) (A) (A) (A) (A)
                 (A) (A) (A) (A) (A) (A) (A) (A) (A) (A) (A) (A)
                 (A) (A) (A) (A) (A) (A) (A) (A) (A) (A) (A) (A)
                 (A) (A) (A) (A) (A) (A) (A) (A) (A) (A) (A) (A)
                 (A) (A) (A) (A) (A) (A) (A) (A) (A) (A) (A) (A)
                 (A) (A) (A) (A) (A) (A) (A) (A) (A) (A) (A) (A)
                 (A) (A) (A) (A) (A)
 The electronic state of the initial guess is 1-A.
 Leave Link  401 at Sun Apr  7 00:57:47 2013, MaxMem= 8589934592 cpu:      93.1
 (Enter /system/software/linux-x86_64/gaussian/g09/A.02__pgi_8.0-6__acml/l502.exe)
 Closed shell SCF:
 Requested convergence on RMS density matrix=1.00D-08 within 128 cycles.
 Requested convergence on MAX density matrix=1.00D-06.
 Requested convergence on             energy=1.00D-06.
 No special actions if energy rises.
 Using DIIS extrapolation, IDIIS=  1040.
 Integral symmetry usage will be decided dynamically.
       601324 words used for storage of precomputed grid.
 IEnd=     1824842 IEndB=     1824842 NGot=  8589934592 MDV=  8588523921
 LenX=  8588523921 LenY=  8588126391
 Fock matrices will be formed incrementally for  20 cycles.
 Integral accuracy reduced to 1.0D-05 until final iterations.

 Cycle   1  Pass 0  IDiag  1:
 FoFCou: FMM=F IPFlag=           0 FMFlag=      100000 FMFlg1=           0
         NFxFlg=           0 DoJE=F BraDBF=F KetDBF=F FulRan=T
         Omega=  0.000000  0.000000  1.000000  0.000000  0.000000 ICntrl=       0 IOpCl=  0
         NMat0=    1 NMatS0=    1 NMatT0=    0 NMatD0=    1 NMtDS0=    0 NMtDT0=    0
         I1Cent=           0 NGrid=           0.
 Symmetry not used in FoFCou.
 E= -609.752987459495    
 DIIS: error= 1.83D-02 at cycle   1 NSaved=   1.
 NSaved= 1 IEnMin= 1 EnMin= -609.752987459495     IErMin= 1 ErrMin= 1.83D-02
 ErrMax= 1.83D-02 EMaxC= 1.00D-01 BMatC= 4.37D-01 BMatP= 4.37D-01
 IDIUse=3 WtCom= 8.17D-01 WtEn= 1.83D-01
 Coeff-Com:  0.100D+01
 Coeff-En:   0.100D+01
 Coeff:      0.100D+01
 Gap=     0.122 Goal=   None    Shift=    0.000
 GapD=    0.122 DampG=1.000 DampE=0.500 DampFc=0.5000 IDamp=-1.
 Damping current iteration by 5.00D-01
 RMSDP=2.55D-03 MaxDP=1.97D-01              OVMax= 2.34D-01

 Cycle   2  Pass 0  IDiag  1:
 RMSU=  9.02D-04    CP:  9.98D-01
 E= -609.859657725252     Delta-E=       -0.106670265756 Rises=F Damp=T
 DIIS: error= 6.10D-03 at cycle   2 NSaved=   2.
 NSaved= 2 IEnMin= 2 EnMin= -609.859657725252     IErMin= 2 ErrMin= 6.10D-03
 ErrMax= 6.10D-03 EMaxC= 1.00D-01 BMatC= 6.22D-02 BMatP= 4.37D-01
 IDIUse=3 WtCom= 9.39D-01 WtEn= 6.10D-02
 Coeff-Com:  0.215D+00 0.785D+00
 Coeff-En:   0.328D+00 0.672D+00
 Coeff:      0.222D+00 0.778D+00
 Gap=     0.233 Goal=   None    Shift=    0.000
 RMSDP=7.76D-04 MaxDP=4.43D-02 DE=-1.07D-01 OVMax= 2.02D-01

 Cycle   3  Pass 0  IDiag  1:
 RMSU=  4.73D-04    CP:  1.00D+00  6.91D-01
 E= -610.064704730583     Delta-E=       -0.205047005331 Rises=F Damp=F
 DIIS: error= 7.91D-03 at cycle   3 NSaved=   3.
 NSaved= 3 IEnMin= 3 EnMin= -610.064704730583     IErMin= 2 ErrMin= 6.10D-03
 ErrMax= 7.91D-03 EMaxC= 1.00D-01 BMatC= 7.17D-02 BMatP= 6.22D-02
 IDIUse=3 WtCom= 1.01D-01 WtEn= 8.99D-01
 Coeff-Com:  0.804D-01 0.514D+00 0.406D+00
 Coeff-En:   0.000D+00 0.000D+00 0.100D+01
 Coeff:      0.813D-02 0.519D-01 0.940D+00
 Gap=     0.190 Goal=   None    Shift=    0.000
 RMSDP=9.01D-04 MaxDP=5.64D-02 DE=-2.05D-01 OVMax= 1.86D-01

 Cycle   4  Pass 0  IDiag  1:
 RMSU=  5.00D-04    CP:  1.00D+00  9.21D-01  2.89D-01
 E= -609.871169128825     Delta-E=        0.193535601758 Rises=F Damp=F
 DIIS: error= 1.55D-02 at cycle   4 NSaved=   4.
 NSaved= 4 IEnMin= 3 EnMin= -610.064704730583     IErMin= 2 ErrMin= 6.10D-03
 ErrMax= 1.55D-02 EMaxC= 1.00D-01 BMatC= 3.29D-01 BMatP= 6.22D-02
 IDIUse=2 WtCom= 0.00D+00 WtEn= 1.00D+00
 Coeff-En:   0.000D+00 0.000D+00 0.758D+00 0.242D+00
 Coeff:      0.000D+00 0.000D+00 0.758D+00 0.242D+00
 Gap=     0.193 Goal=   None    Shift=    0.000
 RMSDP=4.91D-04 MaxDP=3.07D-02 DE= 1.94D-01 OVMax= 8.76D-02

 Cycle   5  Pass 0  IDiag  1:
 RMSU=  5.70D-05    CP:  1.00D+00  7.29D-01  6.71D-01  5.34D-01
 E= -610.107976760935     Delta-E=       -0.236807632110 Rises=F Damp=F
 DIIS: error= 3.72D-03 at cycle   5 NSaved=   5.
 NSaved= 5 IEnMin= 5 EnMin= -610.107976760935     IErMin= 5 ErrMin= 3.72D-03
 ErrMax= 3.72D-03 EMaxC= 1.00D-01 BMatC= 1.80D-02 BMatP= 6.22D-02
 IDIUse=3 WtCom= 9.63D-01 WtEn= 3.72D-02
 Coeff-Com: -0.108D-01 0.356D-01 0.280D+00-0.616D-01 0.757D+00
 Coeff-En:   0.000D+00 0.000D+00 0.246D+00 0.000D+00 0.754D+00
 Coeff:     -0.104D-01 0.343D-01 0.278D+00-0.593D-01 0.757D+00
 Gap=     0.202 Goal=   None    Shift=    0.000
 RMSDP=1.43D-04 MaxDP=8.09D-03 DE=-2.37D-01 OVMax= 2.41D-02

 Cycle   6  Pass 0  IDiag  1:
 RMSU=  1.74D-05    CP:  1.00D+00  7.21D-01  7.94D-01  3.73D-01  8.82D-01
 E= -610.122188496458     Delta-E=       -0.014211735523 Rises=F Damp=F
 DIIS: error= 2.07D-04 at cycle   6 NSaved=   6.
 NSaved= 6 IEnMin= 6 EnMin= -610.122188496458     IErMin= 6 ErrMin= 2.07D-04
 ErrMax= 2.07D-04 EMaxC= 1.00D-01 BMatC= 6.87D-05 BMatP= 1.80D-02
 IDIUse=3 WtCom= 9.98D-01 WtEn= 2.07D-03
 Coeff-Com: -0.879D-02 0.199D-01 0.965D-01-0.509D-01 0.377D+00 0.566D+00
 Coeff-En:   0.000D+00 0.000D+00 0.000D+00 0.000D+00 0.000D+00 0.100D+01
 Coeff:     -0.877D-02 0.198D-01 0.963D-01-0.508D-01 0.376D+00 0.567D+00
 Gap=     0.201 Goal=   None    Shift=    0.000
 RMSDP=1.16D-05 MaxDP=8.76D-04 DE=-1.42D-02 OVMax= 1.59D-03

 Cycle   7  Pass 0  IDiag  1:
 RMSU=  6.29D-06    CP:  1.00D+00  7.23D-01  7.95D-01  3.76D-01  9.43D-01
                    CP:  8.17D-01
 E= -610.122233025205     Delta-E=       -0.000044528746 Rises=F Damp=F
 DIIS: error= 9.58D-05 at cycle   7 NSaved=   7.
 NSaved= 7 IEnMin= 7 EnMin= -610.122233025205     IErMin= 7 ErrMin= 9.58D-05
 ErrMax= 9.58D-05 EMaxC= 1.00D-01 BMatC= 1.05D-05 BMatP= 6.87D-05
 IDIUse=1 WtCom= 1.00D+00 WtEn= 0.00D+00
 Coeff-Com: -0.332D-02 0.638D-02 0.233D-01-0.200D-01 0.120D+00 0.321D+00
 Coeff-Com:  0.553D+00
 Coeff:     -0.332D-02 0.638D-02 0.233D-01-0.200D-01 0.120D+00 0.321D+00
 Coeff:      0.553D+00
 Gap=     0.201 Goal=   None    Shift=    0.000
 RMSDP=5.03D-06 MaxDP=2.59D-04 DE=-4.45D-05 OVMax= 7.76D-04

 Initial convergence to 1.0D-05 achieved.  Increase integral accuracy.
 Cycle   8  Pass 1  IDiag  1:
 E= -610.122229263840     Delta-E=        0.000003761365 Rises=F Damp=F
 DIIS: error= 4.69D-05 at cycle   1 NSaved=   1.
 NSaved= 1 IEnMin= 1 EnMin= -610.122229263840     IErMin= 1 ErrMin= 4.69D-05
 ErrMax= 4.69D-05 EMaxC= 1.00D-01 BMatC= 3.88D-06 BMatP= 3.88D-06
 IDIUse=1 WtCom= 1.00D+00 WtEn= 0.00D+00
 Coeff-Com:  0.100D+01
 Coeff:      0.100D+01
 Gap=     0.201 Goal=   None    Shift=    0.000
 RMSDP=5.03D-06 MaxDP=2.59D-04 DE= 3.76D-06 OVMax= 7.85D-04

 Cycle   9  Pass 1  IDiag  1:
 RMSU=  8.74D-06    CP:  1.00D+00
 E= -610.122224896837     Delta-E=        0.000004367002 Rises=F Damp=F
 DIIS: error= 1.04D-04 at cycle   2 NSaved=   2.
 NSaved= 2 IEnMin= 1 EnMin= -610.122229263840     IErMin= 1 ErrMin= 4.69D-05
 ErrMax= 1.04D-04 EMaxC= 1.00D-01 BMatC= 1.01D-05 BMatP= 3.88D-06
 IDIUse=3 WtCom= 4.95D-01 WtEn= 5.05D-01
 Coeff-Com:  0.631D+00 0.369D+00
 Coeff-En:   0.702D+00 0.298D+00
 Coeff:      0.667D+00 0.333D+00
 Gap=     0.201 Goal=   None    Shift=    0.000
 RMSDP=3.44D-06 MaxDP=1.91D-04 DE= 4.37D-06 OVMax= 5.58D-04

 Cycle  10  Pass 1  IDiag  1:
 RMSU=  2.33D-06    CP:  1.00D+00  9.22D-01
 E= -610.122232111657     Delta-E=       -0.000007214820 Rises=F Damp=F
 DIIS: error= 8.93D-06 at cycle   3 NSaved=   3.
 NSaved= 3 IEnMin= 3 EnMin= -610.122232111657     IErMin= 3 ErrMin= 8.93D-06
 ErrMax= 8.93D-06 EMaxC= 1.00D-01 BMatC= 1.01D-07 BMatP= 3.88D-06
 IDIUse=1 WtCom= 1.00D+00 WtEn= 0.00D+00
 Coeff-Com:  0.915D-01 0.809D-01 0.828D+00
 Coeff:      0.915D-01 0.809D-01 0.828D+00
 Gap=     0.201 Goal=   None    Shift=    0.000
 RMSDP=7.40D-07 MaxDP=3.67D-05 DE=-7.21D-06 OVMax= 7.79D-05

 Cycle  11  Pass 1  IDiag  1:
 RMSU=  4.91D-07    CP:  1.00D+00  9.41D-01  1.02D+00
 E= -610.122232114305     Delta-E=       -0.000000002648 Rises=F Damp=F
 DIIS: error= 9.23D-06 at cycle   4 NSaved=   4.
 NSaved= 4 IEnMin= 4 EnMin= -610.122232114305     IErMin= 3 ErrMin= 8.93D-06
 ErrMax= 9.23D-06 EMaxC= 1.00D-01 BMatC= 9.76D-08 BMatP= 1.01D-07
 IDIUse=1 WtCom= 1.00D+00 WtEn= 0.00D+00
 Coeff-Com: -0.573D-02 0.136D-01 0.508D+00 0.484D+00
 Coeff:     -0.573D-02 0.136D-01 0.508D+00 0.484D+00
 Gap=     0.201 Goal=   None    Shift=    0.000
 RMSDP=3.47D-07 MaxDP=1.87D-05 DE=-2.65D-09 OVMax= 4.31D-05

 Cycle  12  Pass 1  IDiag  1:
 RMSU=  1.59D-07    CP:  1.00D+00  9.50D-01  1.03D+00  6.63D-01
 E= -610.122232188630     Delta-E=       -0.000000074325 Rises=F Damp=F
 DIIS: error= 1.00D-06 at cycle   5 NSaved=   5.
 NSaved= 5 IEnMin= 5 EnMin= -610.122232188630     IErMin= 5 ErrMin= 1.00D-06
 ErrMax= 1.00D-06 EMaxC= 1.00D-01 BMatC= 1.97D-09 BMatP= 9.76D-08
 IDIUse=1 WtCom= 1.00D+00 WtEn= 0.00D+00
 Coeff-Com: -0.623D-02 0.370D-02 0.201D+00 0.225D+00 0.577D+00
 Coeff:     -0.623D-02 0.370D-02 0.201D+00 0.225D+00 0.577D+00
 Gap=     0.201 Goal=   None    Shift=    0.000
 RMSDP=6.98D-08 MaxDP=4.33D-06 DE=-7.43D-08 OVMax= 1.03D-05

 Cycle  13  Pass 1  IDiag  1:
 RMSU=  4.69D-08    CP:  1.00D+00  9.52D-01  1.03D+00  6.80D-01  9.56D-01
 E= -610.122232189761     Delta-E=       -0.000000001131 Rises=F Damp=F
 DIIS: error= 5.26D-07 at cycle   6 NSaved=   6.
 NSaved= 6 IEnMin= 6 EnMin= -610.122232189761     IErMin= 6 ErrMin= 5.26D-07
 ErrMax= 5.26D-07 EMaxC= 1.00D-01 BMatC= 4.91D-10 BMatP= 1.97D-09
 IDIUse=1 WtCom= 1.00D+00 WtEn= 0.00D+00
 Coeff-Com: -0.255D-02 0.335D-03 0.319D-01 0.531D-01 0.347D+00 0.571D+00
 Coeff:     -0.255D-02 0.335D-03 0.319D-01 0.531D-01 0.347D+00 0.571D+00
 Gap=     0.201 Goal=   None    Shift=    0.000
 RMSDP=3.64D-08 MaxDP=2.14D-06 DE=-1.13D-09 OVMax= 5.46D-06

 Cycle  14  Pass 1  IDiag  1:
 RMSU=  1.94D-08    CP:  1.00D+00  9.52D-01  1.04D+00  6.95D-01  1.01D+00
                    CP:  7.91D-01
 E= -610.122232190021     Delta-E=       -0.000000000260 Rises=F Damp=F
 DIIS: error= 2.66D-07 at cycle   7 NSaved=   7.
 NSaved= 7 IEnMin= 7 EnMin= -610.122232190021     IErMin= 7 ErrMin= 2.66D-07
 ErrMax= 2.66D-07 EMaxC= 1.00D-01 BMatC= 1.16D-10 BMatP= 4.91D-10
 IDIUse=1 WtCom= 1.00D+00 WtEn= 0.00D+00
 Coeff-Com: -0.871D-03-0.148D-03-0.489D-02 0.675D-02 0.154D+00 0.384D+00
 Coeff-Com:  0.461D+00
 Coeff:     -0.871D-03-0.148D-03-0.489D-02 0.675D-02 0.154D+00 0.384D+00
 Coeff:      0.461D+00
 Gap=     0.201 Goal=   None    Shift=    0.000
 RMSDP=1.41D-08 MaxDP=8.29D-07 DE=-2.60D-10 OVMax= 2.27D-06

 Cycle  15  Pass 1  IDiag  1:
 RMSU=  6.29D-09    CP:  1.00D+00  9.52D-01  1.04D+00  6.98D-01  1.03D+00
                    CP:  8.52D-01  6.64D-01
 E= -610.122232190120     Delta-E=       -0.000000000099 Rises=F Damp=F
 DIIS: error= 4.02D-08 at cycle   8 NSaved=   8.
 NSaved= 8 IEnMin= 8 EnMin= -610.122232190120     IErMin= 8 ErrMin= 4.02D-08
 ErrMax= 4.02D-08 EMaxC= 1.00D-01 BMatC= 2.61D-12 BMatP= 1.16D-10
 IDIUse=1 WtCom= 1.00D+00 WtEn= 0.00D+00
 Coeff-Com: -0.328D-04-0.558D-04-0.577D-02-0.357D-02 0.172D-01 0.745D-01
 Coeff-Com:  0.172D+00 0.746D+00
 Coeff:     -0.328D-04-0.558D-04-0.577D-02-0.357D-02 0.172D-01 0.745D-01
 Coeff:      0.172D+00 0.746D+00
 Gap=     0.201 Goal=   None    Shift=    0.000
 RMSDP=3.67D-09 MaxDP=1.43D-07 DE=-9.87D-11 OVMax= 3.80D-07

 SCF Done:  E(RM06) =  -610.122232190     A.U. after   15 cycles
             Convg  =    0.3671D-08             -V/T =  2.0074
 KE= 6.056399079895D+02 PE=-2.996669830659D+03 EE= 9.957504773298D+02
 Leave Link  502 at Sun Apr  7 01:12:45 2013, MaxMem= 8589934592 cpu:   14316.2
 (Enter /system/software/linux-x86_64/gaussian/g09/A.02__pgi_8.0-6__acml/l601.exe)
 Copying SCF densities to generalized density rwf, IOpCl= 0 IROHF=0.

 **********************************************************************

            Population analysis using the SCF density.

 **********************************************************************

 Orbital symmetries:
       Occupied  (A) (A) (A) (A) (A) (A) (A) (A) (A) (A) (A) (A)
                 (A) (A) (A) (A) (A) (A) (A) (A) (A) (A) (A) (A)
                 (A) (A) (A) (A) (A) (A) (A) (A) (A) (A) (A) (A)
                 (A) (A) (A) (A) (A) (A) (A) (A) (A) (A) (A)
       Virtual   (A) (A) (A) (A) (A) (A) (A) (A) (A) (A) (A) (A)
                 (A) (A) (A) (A) (A) (A) (A) (A) (A) (A) (A) (A)
                 (A) (A) (A) (A) (A) (A) (A) (A) (A) (A) (A) (A)
                 (A) (A) (A) (A) (A) (A) (A) (A) (A) (A) (A) (A)
                 (A) (A) (A) (A) (A) (A) (A) (A) (A) (A) (A) (A)
                 (A) (A) (A) (A) (A) (A) (A) (A) (A) (A) (A) (A)
                 (A) (A) (A) (A) (A) (A) (A) (A) (A) (A) (A) (A)
                 (A) (A) (A) (A) (A) (A) (A) (A) (A) (A) (A) (A)
                 (A) (A) (A) (A) (A) (A) (A) (A) (A) (A) (A) (A)
                 (A) (A) (A) (A) (A) (A) (A) (A) (A) (A) (A) (A)
                 (A) (A) (A) (A) (A) (A) (A) (A) (A) (A) (A) (A)
                 (A) (A) (A) (A) (A) (A) (A) (A) (A) (A) (A) (A)
                 (A) (A) (A) (A) (A) (A) (A) (A) (A) (A) (A) (A)
                 (A) (A) (A) (A) (A) (A) (A) (A) (A) (A) (A) (A)
                 (A) (A) (A) (A) (A) (A) (A) (A) (A) (A) (A) (A)
                 (A) (A) (A) (A) (A) (A) (A) (A) (A) (A) (A) (A)
                 (A) (A) (A) (A) (A) (A) (A) (A) (A) (A) (A) (A)
                 (A) (A) (A) (A) (A) (A) (A) (A) (A) (A) (A) (A)
                 (A) (A) (A) (A) (A) (A) (A) (A) (A) (A) (A) (A)
                 (A) (A) (A) (A) (A) (A) (A) (A) (A) (A) (A) (A)
                 (A) (A) (A) (A) (A) (A) (A) (A) (A) (A) (A) (A)
                 (A) (A) (A) (A) (A) (A) (A) (A) (A) (A) (A) (A)
                 (A) (A) (A) (A) (A) (A) (A) (A) (A) (A) (A) (A)
                 (A) (A) (A) (A) (A) (A) (A) (A) (A) (A) (A) (A)
                 (A) (A) (A) (A) (A) (A) (A) (A) (A) (A) (A) (A)
                 (A) (A) (A) (A) (A) (A) (A) (A) (A) (A) (A) (A)
                 (A) (A) (A) (A) (A) (A) (A) (A) (A) (A) (A) (A)
                 (A) (A) (A) (A) (A) (A) (A) (A) (A) (A) (A) (A)
                 (A) (A) (A) (A) (A) (A) (A) (A) (A) (A) (A) (A)
                 (A) (A) (A) (A) (A) (A) (A) (A) (A) (A) (A) (A)
                 (A) (A) (A) (A) (A) (A) (A) (A) (A) (A) (A) (A)
                 (A) (A) (A) (A) (A) (A) (A) (A) (A) (A) (A) (A)
                 (A) (A) (A) (A) (A) (A) (A) (A) (A) (A) (A) (A)
                 (A) (A) (A) (A) (A) (A) (A) (A) (A) (A) (A) (A)
                 (A) (A) (A) (A) (A) (A) (A) (A) (A) (A) (A) (A)
                 (A) (A) (A) (A) (A) (A) (A) (A) (A) (A) (A) (A)
                 (A) (A) (A) (A) (A) (A) (A) (A) (A) (A) (A) (A)
                 (A) (A) (A) (A) (A) (A) (A) (A) (A) (A) (A) (A)
                 (A) (A) (A) (A) (A) (A) (A) (A) (A) (A) (A) (A)
                 (A) (A) (A) (A) (A) (A) (A) (A) (A) (A) (A) (A)
                 (A) (A) (A) (A) (A) (A) (A) (A) (A) (A) (A) (A)
                 (A) (A) (A) (A) (A) (A) (A) (A) (A) (A) (A) (A)
                 (A) (A) (A) (A) (A)
 The electronic state is 1-A.
 Alpha  occ. eigenvalues --  -19.20680 -19.20657 -19.18866 -14.42928 -14.39917
 Alpha  occ. eigenvalues --  -10.36791 -10.36302 -10.29464 -10.27514 -10.25294
 Alpha  occ. eigenvalues --  -10.24971 -10.21540  -1.06351  -1.04132  -1.03828
 Alpha  occ. eigenvalues --   -0.94160  -0.91575  -0.79124  -0.75259  -0.72385
 Alpha  occ. eigenvalues --   -0.68487  -0.62232  -0.59102  -0.56979  -0.54806
 Alpha  occ. eigenvalues --   -0.53052  -0.48886  -0.48537  -0.47554  -0.46067
 Alpha  occ. eigenvalues --   -0.45378  -0.44386  -0.43286  -0.42092  -0.41701
 Alpha  occ. eigenvalues --   -0.41416  -0.40140  -0.39487  -0.38558  -0.37052
 Alpha  occ. eigenvalues --   -0.36625  -0.34142  -0.32237  -0.29733  -0.27224
 Alpha  occ. eigenvalues --   -0.26126  -0.24046
 Alpha virt. eigenvalues --   -0.03928   0.00308   0.02061   0.03097   0.05181
 Alpha virt. eigenvalues --    0.06101   0.07264   0.07994   0.09975   0.10184
 Alpha virt. eigenvalues --    0.10307   0.10980   0.12191   0.12517   0.13876
 Alpha virt. eigenvalues --    0.14627   0.14902   0.16651   0.18492   0.19008
 Alpha virt. eigenvalues --    0.19957   0.20771   0.22161   0.23502   0.24074
 Alpha virt. eigenvalues --    0.26041   0.26675   0.27775   0.28420   0.29378
 Alpha virt. eigenvalues --    0.29621   0.30208   0.31748   0.33046   0.33183
 Alpha virt. eigenvalues --    0.34175   0.34744   0.36735   0.36816   0.37567
 Alpha virt. eigenvalues --    0.38389   0.39492   0.39893   0.40564   0.40893
 Alpha virt. eigenvalues --    0.41367   0.41805   0.42660   0.43574   0.43701
 Alpha virt. eigenvalues --    0.44293   0.44668   0.44964   0.45573   0.45771
 Alpha virt. eigenvalues --    0.46526   0.47798   0.47950   0.49445   0.50214
 Alpha virt. eigenvalues --    0.50731   0.51786   0.52489   0.53328   0.53819
 Alpha virt. eigenvalues --    0.56642   0.57961   0.58291   0.60562   0.61231
 Alpha virt. eigenvalues --    0.61721   0.62204   0.64231   0.64571   0.66118
 Alpha virt. eigenvalues --    0.67589   0.69053   0.69874   0.70349   0.73427
 Alpha virt. eigenvalues --    0.73762   0.75211   0.75966   0.78228   0.78450
 Alpha virt. eigenvalues --    0.79501   0.81296   0.81824   0.83142   0.83784
 Alpha virt. eigenvalues --    0.85321   0.85686   0.87244   0.88198   0.88792
 Alpha virt. eigenvalues --    0.89649   0.91029   0.91781   0.91999   0.94492
 Alpha virt. eigenvalues --    0.95079   0.96562   0.97658   0.98623   0.99591
 Alpha virt. eigenvalues --    1.00322   1.01746   1.02630   1.02819   1.03700
 Alpha virt. eigenvalues --    1.04436   1.05675   1.06172   1.07569   1.08043
 Alpha virt. eigenvalues --    1.09554   1.10373   1.11625   1.12679   1.13932
 Alpha virt. eigenvalues --    1.15099   1.15950   1.16648   1.17311   1.17780
 Alpha virt. eigenvalues --    1.18785   1.20232   1.20918   1.22614   1.23900
 Alpha virt. eigenvalues --    1.24188   1.24989   1.25703   1.26456   1.26844
 Alpha virt. eigenvalues --    1.27803   1.29243   1.29799   1.30660   1.31121
 Alpha virt. eigenvalues --    1.31949   1.32192   1.34645   1.36367   1.36786
 Alpha virt. eigenvalues --    1.38359   1.40261   1.40881   1.41226   1.44707
 Alpha virt. eigenvalues --    1.46001   1.46461   1.47963   1.49034   1.49297
 Alpha virt. eigenvalues --    1.50091   1.51742   1.53367   1.54876   1.57210
 Alpha virt. eigenvalues --    1.58094   1.58838   1.60152   1.63007   1.63866
 Alpha virt. eigenvalues --    1.65899   1.66907   1.69683   1.70417   1.72543
 Alpha virt. eigenvalues --    1.76773   1.78394   1.80314   1.81537   1.83710
 Alpha virt. eigenvalues --    1.84483   1.88987   1.92528   1.95377   1.96992
 Alpha virt. eigenvalues --    2.00078   2.04932   2.06757   2.07128   2.10306
 Alpha virt. eigenvalues --    2.10684   2.14100   2.15024   2.15583   2.19566
 Alpha virt. eigenvalues --    2.20384   2.22680   2.24314   2.26586   2.28070
 Alpha virt. eigenvalues --    2.28480   2.29898   2.30857   2.32156   2.35977
 Alpha virt. eigenvalues --    2.39343   2.42190   2.43002   2.43414   2.45666
 Alpha virt. eigenvalues --    2.46043   2.47620   2.50026   2.51376   2.52602
 Alpha virt. eigenvalues --    2.54407   2.56539   2.59387   2.60144   2.61432
 Alpha virt. eigenvalues --    2.61839   2.64012   2.64977   2.65928   2.67415
 Alpha virt. eigenvalues --    2.67552   2.69109   2.70963   2.71945   2.72095
 Alpha virt. eigenvalues --    2.73004   2.73201   2.75024   2.76080   2.76611
 Alpha virt. eigenvalues --    2.78031   2.78233   2.78841   2.82532   2.83242
 Alpha virt. eigenvalues --    2.84840   2.85454   2.86212   2.87943   2.88546
 Alpha virt. eigenvalues --    2.89606   2.90036   2.90754   2.91803   2.94545
 Alpha virt. eigenvalues --    2.95117   2.97318   2.97998   2.98593   2.99999
 Alpha virt. eigenvalues --    3.00621   3.01553   3.02335   3.02646   3.03138
 Alpha virt. eigenvalues --    3.04729   3.05850   3.06180   3.07004   3.07837
 Alpha virt. eigenvalues --    3.08800   3.10359   3.11550   3.12019   3.12919
 Alpha virt. eigenvalues --    3.14692   3.16031   3.17292   3.19014   3.19066
 Alpha virt. eigenvalues --    3.21084   3.21337   3.21754   3.23281   3.25146
 Alpha virt. eigenvalues --    3.26507   3.27584   3.28737   3.29252   3.30595
 Alpha virt. eigenvalues --    3.31217   3.32273   3.33666   3.34555   3.36965
 Alpha virt. eigenvalues --    3.37747   3.38327   3.39879   3.40444   3.41264
 Alpha virt. eigenvalues --    3.41687   3.42558   3.43270   3.44980   3.45419
 Alpha virt. eigenvalues --    3.45656   3.47292   3.47859   3.48513   3.49600
 Alpha virt. eigenvalues --    3.51518   3.52037   3.53799   3.54419   3.55846
 Alpha virt. eigenvalues --    3.58300   3.58890   3.60041   3.60952   3.61714
 Alpha virt. eigenvalues --    3.62354   3.64633   3.65272   3.66539   3.67405
 Alpha virt. eigenvalues --    3.69498   3.73006   3.73718   3.74671   3.76588
 Alpha virt. eigenvalues --    3.77117   3.78860   3.79542   3.80483   3.80555
 Alpha virt. eigenvalues --    3.81799   3.83309   3.83590   3.84485   3.85036
 Alpha virt. eigenvalues --    3.85791   3.86676   3.87494   3.88616   3.89479
 Alpha virt. eigenvalues --    3.91584   3.93331   3.94177   3.95545   3.96323
 Alpha virt. eigenvalues --    3.97182   3.98161   3.99137   4.00283   4.01399
 Alpha virt. eigenvalues --    4.02685   4.03999   4.05372   4.06185   4.07485
 Alpha virt. eigenvalues --    4.07725   4.08035   4.09747   4.11687   4.12915
 Alpha virt. eigenvalues --    4.14073   4.15604   4.15967   4.16898   4.18934
 Alpha virt. eigenvalues --    4.20216   4.20768   4.21894   4.22408   4.25132
 Alpha virt. eigenvalues --    4.26484   4.27028   4.28046   4.28887   4.30702
 Alpha virt. eigenvalues --    4.31922   4.33337   4.33797   4.35902   4.37156
 Alpha virt. eigenvalues --    4.39597   4.40390   4.42627   4.43860   4.43930
 Alpha virt. eigenvalues --    4.47416   4.49586   4.51225   4.53981   4.54643
 Alpha virt. eigenvalues --    4.58031   4.59847   4.61995   4.66596   4.67921
 Alpha virt. eigenvalues --    4.70957   4.72975   4.73468   4.75907   4.76820
 Alpha virt. eigenvalues --    4.77477   4.79284   4.79753   4.80620   4.81297
 Alpha virt. eigenvalues --    4.83658   4.84840   4.85698   4.88163   4.92252
 Alpha virt. eigenvalues --    4.93516   4.94143   4.95744   4.96845   4.99632
 Alpha virt. eigenvalues --    5.00547   5.02307   5.04609   5.05912   5.08116
 Alpha virt. eigenvalues --    5.08705   5.09551   5.09785   5.10794   5.11748
 Alpha virt. eigenvalues --    5.12724   5.14252   5.15450   5.15987   5.17297
 Alpha virt. eigenvalues --    5.17473   5.19683   5.19927   5.21107   5.21135
 Alpha virt. eigenvalues --    5.23971   5.25415   5.25523   5.28442   5.29627
 Alpha virt. eigenvalues --    5.30566   5.30719   5.31367   5.34719   5.35622
 Alpha virt. eigenvalues --    5.36499   5.39270   5.42364   5.43016   5.47825
 Alpha virt. eigenvalues --    5.52569   5.54779   5.56082   5.58062   5.59573
 Alpha virt. eigenvalues --    5.62240   5.65111   5.68146   5.70706   5.71549
 Alpha virt. eigenvalues --    5.72404   5.73469   5.76207   5.78030   5.78814
 Alpha virt. eigenvalues --    5.79213   5.80264   5.81952   5.83918   5.87369
 Alpha virt. eigenvalues --    5.90537   5.93606   5.94948   5.98279   5.99440
 Alpha virt. eigenvalues --    6.07567   6.11385   6.18504   6.22387   6.23284
 Alpha virt. eigenvalues --    6.47018   6.50856   6.53205   6.53772   6.56196
 Alpha virt. eigenvalues --    6.57315   6.62572   6.63449   6.69812   6.70161
 Alpha virt. eigenvalues --    6.81968   6.82959   6.89000   6.92457   6.99645
 Alpha virt. eigenvalues --    7.04327   7.08342   7.14067   7.18318   7.27939
 Alpha virt. eigenvalues --    7.29805   7.47117   8.99452   9.36494  11.34763
 Alpha virt. eigenvalues --   11.62807  11.97937  12.23816  12.35908  12.54417
 Alpha virt. eigenvalues --   12.90330  13.51188  13.68370  13.85575
          Condensed to atoms (all electrons):
              1          2          3          4          5          6
     1  C    5.094689   0.432904   0.211526  -0.008570  -0.073203   0.014149
     2  H    0.432904   0.432939  -0.041836   0.003408  -0.002327   0.003628
     3  C    0.211526  -0.041836   5.292498   0.395502   0.279295  -0.105759
     4  H   -0.008570   0.003408   0.395502   0.443241  -0.039825   0.004433
     5  C   -0.073203  -0.002327   0.279295  -0.039825   4.729894   0.633450
     6  O    0.014149   0.003628  -0.105759   0.004433   0.633450   7.878988
     7  N   -0.022638   0.006001   0.257569  -0.012040  -0.050620   0.000680
     8  H    0.007421  -0.000986  -0.036889  -0.005839  -0.002842   0.000729
     9  C    0.289981  -0.021551  -0.080518  -0.008035   0.004923   0.000082
    10  H   -0.037238  -0.002265  -0.002022   0.001038  -0.000204   0.000019
    11  H   -0.030332  -0.008413   0.009563   0.000015  -0.000288   0.000014
    12  H   -0.035175   0.006386  -0.003573   0.003912   0.000225  -0.000001
    13  O    0.264896  -0.034228  -0.036775   0.001280   0.014437  -0.001104
    14  H   -0.034786  -0.006549   0.008298  -0.000100  -0.000565  -0.000064
    15  C   -0.009424  -0.008490  -0.057861   0.003205  -0.009789   0.018896
    16  C   -0.001735   0.000934   0.004643  -0.000572   0.000922   0.002008
    17  H    0.000118  -0.000058  -0.000962   0.000087   0.000219   0.000537
    18  H   -0.000108   0.000160  -0.000006   0.000017   0.000325   0.000713
    19  H    0.000037  -0.000097  -0.000353  -0.000001   0.000161   0.000270
    20  N    0.004967   0.000291  -0.072573   0.015027   0.362656  -0.096456
    21  H   -0.001407   0.000079   0.003232  -0.001014  -0.014202  -0.000981
    22  C   -0.000647  -0.000029   0.009553  -0.000337  -0.054882  -0.006985
    23  H   -0.000011  -0.000002   0.000025  -0.000158   0.006107   0.001350
    24  H    0.000226   0.000005   0.002494   0.000350  -0.012509   0.017346
    25  H   -0.000157  -0.000011  -0.000688  -0.000417  -0.001824  -0.001455
    26  O   -0.069104   0.016112   0.018096  -0.001394  -0.006292  -0.033984
              7          8          9         10         11         12
     1  C   -0.022638   0.007421   0.289981  -0.037238  -0.030332  -0.035175
     2  H    0.006001  -0.000986  -0.021551  -0.002265  -0.008413   0.006386
     3  C    0.257569  -0.036889  -0.080518  -0.002022   0.009563  -0.003573
     4  H   -0.012040  -0.005839  -0.008035   0.001038   0.000015   0.003912
     5  C   -0.050620  -0.002842   0.004923  -0.000204  -0.000288   0.000225
     6  O    0.000680   0.000729   0.000082   0.000019   0.000014  -0.000001
     7  N    6.492438   0.386789  -0.010678   0.010399   0.000264  -0.000504
     8  H    0.386789   0.563042   0.000025   0.000101   0.000052  -0.000275
     9  C   -0.010678   0.000025   5.105049   0.375139   0.400171   0.392391
    10  H    0.010399   0.000101   0.375139   0.554618  -0.018276  -0.024288
    11  H    0.000264   0.000052   0.400171  -0.018276   0.562312  -0.031921
    12  H   -0.000504  -0.000275   0.392391  -0.024288  -0.031921   0.558982
    13  O    0.001271  -0.000072  -0.049409   0.006318  -0.001360   0.003447
    14  H   -0.000367   0.000034  -0.005198  -0.000049   0.005483  -0.001517
    15  C    0.288911  -0.007875   0.006438   0.000283  -0.000295  -0.000004
    16  C   -0.064745  -0.002649   0.000471   0.000303  -0.000007  -0.000030
    17  H    0.007789   0.000871  -0.000033   0.000003  -0.000001   0.000009
    18  H    0.003928  -0.000747  -0.000021   0.000024   0.000000   0.000001
    19  H    0.001626   0.000321   0.000010   0.000000  -0.000001   0.000000
    20  N    0.003257   0.000538  -0.000262   0.000010   0.000015  -0.000064
    21  H    0.000018  -0.000084   0.000185  -0.000019  -0.000015   0.000033
    22  C   -0.001234  -0.000224   0.000017   0.000002   0.000000  -0.000002
    23  H   -0.000009   0.000003  -0.000001   0.000000   0.000000   0.000000
    24  H    0.000006   0.000003   0.000006   0.000000   0.000000  -0.000001
    25  H    0.000112   0.000153  -0.000003   0.000001   0.000000   0.000001
    26  O   -0.100596   0.004114   0.007861  -0.001455   0.000153  -0.000347
             13         14         15         16         17         18
     1  C    0.264896  -0.034786  -0.009424  -0.001735   0.000118  -0.000108
     2  H   -0.034228  -0.006549  -0.008490   0.000934  -0.000058   0.000160
     3  C   -0.036775   0.008298  -0.057861   0.004643  -0.000962  -0.000006
     4  H    0.001280  -0.000100   0.003205  -0.000572   0.000087   0.000017
     5  C    0.014437  -0.000565  -0.009789   0.000922   0.000219   0.000325
     6  O   -0.001104  -0.000064   0.018896   0.002008   0.000537   0.000713
     7  N    0.001271  -0.000367   0.288911  -0.064745   0.007789   0.003928
     8  H   -0.000072   0.000034  -0.007875  -0.002649   0.000871  -0.000747
     9  C   -0.049409  -0.005198   0.006438   0.000471  -0.000033  -0.000021
    10  H    0.006318  -0.000049   0.000283   0.000303   0.000003   0.000024
    11  H   -0.001360   0.005483  -0.000295  -0.000007  -0.000001   0.000000
    12  H    0.003447  -0.001517  -0.000004  -0.000030   0.000009   0.000001
    13  O    7.835836   0.362415  -0.000171   0.000014  -0.000002  -0.000002
    14  H    0.362415   0.488330  -0.000176  -0.000004   0.000000   0.000000
    15  C   -0.000171  -0.000176   4.665438   0.292273  -0.044612  -0.030198
    16  C    0.000014  -0.000004   0.292273   4.911777   0.384403   0.397124
    17  H   -0.000002   0.000000  -0.044612   0.384403   0.610510  -0.025404
    18  H   -0.000002   0.000000  -0.030198   0.397124  -0.025404   0.541184
    19  H    0.000000   0.000000  -0.022332   0.387684  -0.030264  -0.018575
    20  N   -0.004376   0.000130   0.000165   0.000001   0.000007   0.000005
    21  H    0.006795  -0.000332   0.000107   0.000005   0.000001   0.000000
    22  C   -0.000119   0.000001  -0.000176   0.000032  -0.000028   0.000009
    23  H   -0.000003   0.000001   0.000003   0.000001  -0.000001   0.000000
    24  H   -0.000016  -0.000001  -0.000082  -0.000026  -0.000010  -0.000001
    25  H   -0.000008   0.000001   0.000007   0.000052   0.000052  -0.000004
    26  O    0.002099  -0.000180   0.619611  -0.054956   0.002535   0.004937
             19         20         21         22         23         24
     1  C    0.000037   0.004967  -0.001407  -0.000647  -0.000011   0.000226
     2  H   -0.000097   0.000291   0.000079  -0.000029  -0.000002   0.000005
     3  C   -0.000353  -0.072573   0.003232   0.009553   0.000025   0.002494
     4  H   -0.000001   0.015027  -0.001014  -0.000337  -0.000158   0.000350
     5  C    0.000161   0.362656  -0.014202  -0.054882   0.006107  -0.012509
     6  O    0.000270  -0.096456  -0.000981  -0.006985   0.001350   0.017346
     7  N    0.001626   0.003257   0.000018  -0.001234  -0.000009   0.000006
     8  H    0.000321   0.000538  -0.000084  -0.000224   0.000003   0.000003
     9  C    0.000010  -0.000262   0.000185   0.000017  -0.000001   0.000006
    10  H    0.000000   0.000010  -0.000019   0.000002   0.000000   0.000000
    11  H   -0.000001   0.000015  -0.000015   0.000000   0.000000   0.000000
    12  H    0.000000  -0.000064   0.000033  -0.000002   0.000000  -0.000001
    13  O    0.000000  -0.004376   0.006795  -0.000119  -0.000003  -0.000016
    14  H    0.000000   0.000130  -0.000332   0.000001   0.000001  -0.000001
    15  C   -0.022332   0.000165   0.000107  -0.000176   0.000003  -0.000082
    16  C    0.387684   0.000001   0.000005   0.000032   0.000001  -0.000026
    17  H   -0.030264   0.000007   0.000001  -0.000028  -0.000001  -0.000010
    18  H   -0.018575   0.000005   0.000000   0.000009   0.000000  -0.000001
    19  H    0.563699   0.000003   0.000000  -0.000002   0.000000  -0.000001
    20  N    0.000003   6.477157   0.373271   0.268458  -0.024719  -0.055879
    21  H    0.000000   0.373271   0.554394  -0.025628  -0.004347  -0.007641
    22  C   -0.000002   0.268458  -0.025628   4.813102   0.401395   0.404256
    23  H    0.000000  -0.024719  -0.004347   0.401395   0.578493  -0.033668
    24  H   -0.000001  -0.055879  -0.007641   0.404256  -0.033668   0.617233
    25  H    0.000002  -0.033192   0.006633   0.398266  -0.021409  -0.051697
    26  O   -0.000097  -0.000232   0.000018   0.000109   0.000002   0.000034
             25         26
     1  C   -0.000157  -0.069104
     2  H   -0.000011   0.016112
     3  C   -0.000688   0.018096
     4  H   -0.000417  -0.001394
     5  C   -0.001824  -0.006292
     6  O   -0.001455  -0.033984
     7  N    0.000112  -0.100596
     8  H    0.000153   0.004114
     9  C   -0.000003   0.007861
    10  H    0.000001  -0.001455
    11  H    0.000000   0.000153
    12  H    0.000001  -0.000347
    13  O   -0.000008   0.002099
    14  H    0.000001  -0.000180
    15  C    0.000007   0.619611
    16  C    0.000052  -0.054956
    17  H    0.000052   0.002535
    18  H   -0.000004   0.004937
    19  H    0.000002  -0.000097
    20  N   -0.033192  -0.000232
    21  H    0.006633   0.000018
    22  C    0.398266   0.000109
    23  H   -0.021409   0.000002
    24  H   -0.051697   0.000034
    25  H    0.602352  -0.000018
    26  O   -0.000018   7.952100
 Mulliken atomic charges:
              1
     1  C    0.003619
     2  H    0.223995
     3  C   -0.052481
     4  H    0.206784
     5  C    0.236757
     6  O   -0.330502
     7  N   -0.197629
     8  H    0.094285
     9  C   -0.407038
    10  H    0.137557
    11  H    0.112867
    12  H    0.132315
    13  O   -0.371163
    14  H    0.185196
    15  C    0.296150
    16  C   -0.257922
    17  H    0.094232
    18  H    0.126638
    19  H    0.117910
    20  N   -0.218206
    21  H    0.110898
    22  C   -0.204910
    23  H    0.096949
    24  H    0.119573
    25  H    0.103251
    26  O   -0.359124
 Sum of Mulliken atomic charges =   0.00000
 Mulliken charges with hydrogens summed into heavy atoms:
              1
     1  C    0.227614
     3  C    0.154303
     5  C    0.236757
     6  O   -0.330502
     7  N   -0.103344
     9  C   -0.024298
    13  O   -0.185967
    15  C    0.296150
    16  C    0.080858
    20  N   -0.107308
    22  C    0.114862
    26  O   -0.359124
 Sum of Mulliken charges with hydrogens summed into heavy atoms =   0.00000
 Electronic spatial extent (au):  <R**2>=           2208.1362
 Charge=              0.0000 electrons
 Dipole moment (field-independent basis, Debye):
    X=              0.2463    Y=              0.7338    Z=              2.1561  Tot=              2.2908
 Quadrupole moment (field-independent basis, Debye-Ang):
   XX=            -67.7804   YY=            -64.3809   ZZ=            -74.5104
   XY=             -0.2958   XZ=             -0.7499   YZ=              8.0492
 Traceless Quadrupole moment (field-independent basis, Debye-Ang):
   XX=              1.1102   YY=              4.5097   ZZ=             -5.6199
   XY=             -0.2958   XZ=             -0.7499   YZ=              8.0492
 Octapole moment (field-independent basis, Debye-Ang**2):
  XXX=             25.9372  YYY=              6.0993  ZZZ=             -4.9647  XYY=            -16.6334
  XXY=             -1.4554  XXZ=             -6.9464  XZZ=              0.9433  YZZ=             -6.7188
  YYZ=            -10.7148  XYZ=             -1.3918
 Hexadecapole moment (field-independent basis, Debye-Ang**3):
 XXXX=          -1356.5971 YYYY=          -1031.5488 ZZZZ=           -282.0300 XXXY=            -28.8396
 XXXZ=            -11.4442 YYYX=             -7.3794 YYYZ=             47.0929 ZZZX=              2.8761
 ZZZY=             21.8580 XXYY=           -397.4400 XXZZ=           -314.5647 YYZZ=           -208.2670
 XXYZ=             23.8236 YYXZ=             15.8735 ZZXY=              9.7923
 N-N= 7.851572131495D+02 E-N=-2.996669839977D+03  KE= 6.056399079895D+02
 No NMR shielding tensors so no spin-rotation constants.
 Leave Link  601 at Sun Apr  7 01:12:46 2013, MaxMem= 8589934592 cpu:      12.7
 (Enter /system/software/linux-x86_64/gaussian/g09/A.02__pgi_8.0-6__acml/l701.exe)
 Compute integral first derivatives.
 ... and contract with generalized density number  0.
 Leave Link  701 at Sun Apr  7 01:12:47 2013, MaxMem= 8589934592 cpu:      12.5
 (Enter /system/software/linux-x86_64/gaussian/g09/A.02__pgi_8.0-6__acml/l702.exe)
 L702 exits ... SP integral derivatives will be done elsewhere.
 Leave Link  702 at Sun Apr  7 01:12:47 2013, MaxMem= 8589934592 cpu:       0.8
 (Enter /system/software/linux-x86_64/gaussian/g09/A.02__pgi_8.0-6__acml/l703.exe)
 Compute integral first derivatives, UseDBF=F ICtDFT=           0.
 Integral derivatives from FoFDir, PRISM(SPDF).
 Calling FoFJK, ICntrl=      2127 FMM=F ISym2X=0 I1Cent= 0 IOpClX= 0 NMat=1 NMatS=1 NMatT=0.
 FoFCou: FMM=F IPFlag=           0 FMFlag=      100000 FMFlg1=         800
         NFxFlg=           0 DoJE=F BraDBF=F KetDBF=F FulRan=T
         Omega=  0.000000  0.000000  1.000000  0.000000  0.000000 ICntrl=    2127 IOpCl=  0
         NMat0=    1 NMatS0=    1 NMatT0=    0 NMatD0=    1 NMtDS0=    0 NMtDT0=    0
         I1Cent=           0 NGrid=           0.
 Symmetry not used in FoFCou.
 Leave Link  703 at Sun Apr  7 01:15:17 2013, MaxMem= 8589934592 cpu:    2381.8
 (Enter /system/software/linux-x86_64/gaussian/g09/A.02__pgi_8.0-6__acml/l716.exe)
 Dipole        = 9.69048028D-02 2.88698004D-01 8.48267627D-01
 ***** Axes restored to original set *****
 -------------------------------------------------------------------
 Center     Atomic                   Forces (Hartrees/Bohr)
 Number     Number              X              Y              Z
 -------------------------------------------------------------------
      1        6           0.008599770   -0.039870210    0.006398442
      2        1           0.000196338   -0.003835980    0.007017655
      3        6           0.013247522    0.013362487    0.015576649
      4        1          -0.009305399   -0.011819857    0.001109880
      5        6           0.026781775    0.065216657    0.025058901
      6        8          -0.054194594   -0.066764654    0.004388042
      7        7           0.035782135    0.042836837    0.011473675
      8        1          -0.009712842    0.000789735   -0.009275986
      9        6          -0.010529012    0.023676672    0.013663293
     10        1           0.002295055    0.001206699   -0.013306782
     11        1           0.012719043   -0.004752856    0.003171154
     12        1          -0.008682785   -0.012349873    0.000673693
     13        8          -0.018066976   -0.000174368    0.000638045
     14        1          -0.001740423    0.003056567   -0.004120837
     15        6           0.051737199   -0.000143875    0.041707333
     16        6          -0.006042176   -0.031047448    0.023273554
     17        1          -0.013235771    0.002687511   -0.006196963
     18        1           0.006039475    0.006800832    0.006344348
     19        1           0.005590620   -0.003704010   -0.011415163
     20        7           0.010305199    0.008790646   -0.041699854
     21        1           0.005627624   -0.012426884    0.007395520
     22        6           0.015158977   -0.014070660    0.006420211
     23        1          -0.009850678   -0.003376081    0.007084014
     24        1           0.004238316    0.015361109    0.003876528
     25        1          -0.004933227    0.003893714   -0.010049623
     26        8          -0.052025164    0.016657289   -0.089205729
 -------------------------------------------------------------------
 Cartesian Forces:  Max     0.089205729 RMS     0.023058818
 Leave Link  716 at Sun Apr  7 01:15:17 2013, MaxMem= 8589934592 cpu:       0.8
 (Enter /system/software/linux-x86_64/gaussian/g09/A.02__pgi_8.0-6__acml/l103.exe)

 GradGradGradGradGradGradGradGradGradGradGradGradGradGradGradGradGradGrad
 Berny optimization.
 Internal  Forces:  Max     0.084039134 RMS     0.016231254
 Search for a local minimum.
 Step number   1 out of a maximum of  132
 All quantities printed in internal units (Hartrees-Bohrs-Radians)
 RMS Force = .16231D-01 SwitMx=.10000D-02 MixMth= 1
 Mixed Optimization -- RFO/linear search
 Second derivative matrix not updated -- first step.
     Eigenvalues ---    0.00237   0.00237   0.00237   0.00257   0.00448
     Eigenvalues ---    0.00448   0.00766   0.00766   0.00766   0.01247
     Eigenvalues ---    0.01295   0.03399   0.03418   0.04572   0.04906
     Eigenvalues ---    0.05051   0.05720   0.05720   0.05811   0.06194
     Eigenvalues ---    0.07004   0.07243   0.07243   0.07537   0.07537
     Eigenvalues ---    0.08706   0.11287   0.11388   0.16000   0.16000
     Eigenvalues ---    0.16000   0.16000   0.16000   0.16000   0.16000
     Eigenvalues ---    0.16000   0.16000   0.16000   0.16104   0.17223
     Eigenvalues ---    0.18775   0.19733   0.23464   0.24686   0.25000
     Eigenvalues ---    0.25000   0.25000   0.28457   0.28519   0.28519
     Eigenvalues ---    0.28519   0.35040   0.35740   0.35740   0.35740
     Eigenvalues ---    0.37074   0.37230   0.37230   0.37230   0.37230
     Eigenvalues ---    0.37230   0.37230   0.37230   0.37230   0.37230
     Eigenvalues ---    0.37230   0.40989   0.47688   0.47688   0.55473
     Eigenvalues ---    0.79816   0.802091000.000001000.000001000.00000
     Eigenvalues --- 1000.000001000.000001000.000001000.000001000.00000
     Eigenvalues --- 1000.000001000.000001000.000001000.000001000.00000
     Eigenvalues --- 1000.000001000.000001000.000001000.000001000.00000
     Eigenvalues --- 1000.000001000.000001000.000001000.000001000.00000
     Eigenvalues --- 1000.000001000.000001000.000001000.000001000.00000
     Eigenvalues --- 1000.000001000.000001000.000001000.000001000.00000
     Eigenvalues --- 1000.000001000.000001000.000001000.000001000.00000
     Eigenvalues --- 1000.000001000.000001000.000001000.000001000.00000
     Eigenvalues --- 1000.000001000.000001000.000001000.000001000.00000
     Eigenvalues --- 1000.000001000.00000
 RFO step:  Lambda=-9.46001153D-02 EMin= 2.36824035D-03
 Linear search not attempted -- first point.
 Maximum step size (   0.300) exceeded in Quadratic search.
    -- Step size scaled by   0.446
 Iteration  1 RMS(Cart)=  0.11849352 RMS(Int)=  0.00579248
 Iteration  2 RMS(Cart)=  0.01246050 RMS(Int)=  0.00077379
 Iteration  3 RMS(Cart)=  0.00018017 RMS(Int)=  0.00076765
 Iteration  4 RMS(Cart)=  0.00000051 RMS(Int)=  0.00076765
 Variable       Old X    -DE/DX   Delta X   Delta X   Delta X     New X
                                 (Linear)    (Quad)   (Total)
    R1        2.02201   0.02342   0.00000   0.01955   0.02048   2.04249
    R2        2.91018  -0.02118   0.00000  -0.02212  -0.02273   2.88745
    R3        2.91018  -0.00957   0.00000  -0.01123  -0.01123   2.89894
    R4        2.70231  -0.00361   0.00000  -0.00319  -0.00319   2.69912
    R5        3.20912   0.04528   0.00000   0.10636   0.10794   3.31706
    R6        2.02201   0.01507   0.00000   0.01439   0.01439   2.03639
    R7        2.91018   0.00092   0.00000   0.00108   0.00108   2.91126
    R8        2.77790   0.00455   0.00000   0.00862   0.00716   2.78506
    R9        2.37803  -0.08404   0.00000  -0.04176  -0.04176   2.33627
   R10        2.77790  -0.03270   0.00000  -0.03223  -0.03223   2.74566
   R11        1.88973   0.01170   0.00000   0.00912   0.00912   1.89885
   R12        2.77790  -0.03549   0.00000  -0.03210  -0.03306   2.74484
   R13        2.02201   0.01311   0.00000   0.01251   0.01251   2.03451
   R14        2.02201   0.01391   0.00000   0.01328   0.01328   2.03528
   R15        2.02201   0.01504   0.00000   0.01435   0.01435   2.03636
   R16        1.81414  -0.00367   0.00000  -0.00252  -0.00252   1.81162
   R17        2.91018  -0.02498   0.00000  -0.02931  -0.02931   2.88087
   R18        2.37803  -0.07642   0.00000  -0.03897  -0.03840   2.33963
   R19        2.02201   0.01431   0.00000   0.01366   0.01366   2.03567
   R20        2.02201   0.01021   0.00000   0.00974   0.00974   2.03175
   R21        2.02201   0.01322   0.00000   0.01262   0.01262   2.03463
   R22        1.88973   0.01238   0.00000   0.00965   0.00965   1.89938
   R23        2.77790   0.00025   0.00000   0.00025   0.00025   2.77815
   R24        2.02201   0.01242   0.00000   0.01185   0.01185   2.03386
   R25        2.02201   0.01467   0.00000   0.01400   0.01400   2.03601
   R26        2.02201   0.01184   0.00000   0.01130   0.01130   2.03330
    A1        1.91063  -0.01553   0.00000  -0.03393  -0.03453   1.87610
    A2        1.91063   0.00022   0.00000   0.00665   0.00664   1.91727
    A3        1.91063   0.01302   0.00000   0.02800   0.02773   1.93837
    A4        1.91063   0.01500   0.00000   0.01830   0.01869   1.92932
    A5        1.91063  -0.01433   0.00000  -0.02747  -0.02737   1.88326
    A6        1.91063   0.00161   0.00000   0.00844   0.00831   1.91895
[...]
 Alpha virt. eigenvalues --    1.27887   1.28061   1.29207   1.30292   1.31593
 Alpha virt. eigenvalues --    1.33087   1.33788   1.34778   1.36202   1.36897
 Alpha virt. eigenvalues --    1.38233   1.38745   1.41473   1.41832   1.43707
 Alpha virt. eigenvalues --    1.43961   1.45236   1.45475   1.46859   1.48326
 Alpha virt. eigenvalues --    1.49068   1.50191   1.51143   1.53119   1.57216
 Alpha virt. eigenvalues --    1.57609   1.58188   1.59657   1.60902   1.61698
 Alpha virt. eigenvalues --    1.65224   1.66678   1.72139   1.73636   1.78196
 Alpha virt. eigenvalues --    1.78335   1.80663   1.85545   1.86845   1.87982
 Alpha virt. eigenvalues --    1.89282   1.90314   1.93934   1.99595   2.00138
 Alpha virt. eigenvalues --    2.01095   2.04109   2.05908   2.10429   2.11512
 Alpha virt. eigenvalues --    2.12280   2.13266   2.15606   2.16353   2.18126
 Alpha virt. eigenvalues --    2.22554   2.25201   2.26195   2.27817   2.28233
 Alpha virt. eigenvalues --    2.29151   2.32255   2.32770   2.35284   2.37137
 Alpha virt. eigenvalues --    2.42329   2.42902   2.44161   2.45141   2.46673
 Alpha virt. eigenvalues --    2.48793   2.50291   2.52343   2.52997   2.54516
 Alpha virt. eigenvalues --    2.55055   2.55633   2.57681   2.59612   2.62269
 Alpha virt. eigenvalues --    2.62840   2.64105   2.64910   2.65003   2.68223
 Alpha virt. eigenvalues --    2.68774   2.69854   2.70753   2.71308   2.72079
 Alpha virt. eigenvalues --    2.72181   2.73082   2.73877   2.76301   2.76557
 Alpha virt. eigenvalues --    2.77823   2.78708   2.79577   2.81559   2.83579
 Alpha virt. eigenvalues --    2.84155   2.85048   2.86413   2.88944   2.90247
 Alpha virt. eigenvalues --    2.90861   2.92128   2.92573   2.93586   2.94989
 Alpha virt. eigenvalues --    2.95643   2.97300   2.97739   2.98582   2.99864
 Alpha virt. eigenvalues --    3.01166   3.01381   3.02426   3.03487   3.04336
 Alpha virt. eigenvalues --    3.05303   3.05822   3.06420   3.07552   3.08499
 Alpha virt. eigenvalues --    3.09757   3.10726   3.12404   3.13082   3.14440
 Alpha virt. eigenvalues --    3.15834   3.16225   3.18147   3.19984   3.20279
 Alpha virt. eigenvalues --    3.21713   3.24722   3.25499   3.25869   3.28162
 Alpha virt. eigenvalues --    3.28531   3.29189   3.30046   3.30442   3.32059
 Alpha virt. eigenvalues --    3.32862   3.33238   3.35182   3.36579   3.37086
 Alpha virt. eigenvalues --    3.37774   3.38114   3.39057   3.40210   3.41891
 Alpha virt. eigenvalues --    3.43467   3.44204   3.44852   3.45493   3.46008
 Alpha virt. eigenvalues --    3.46375   3.47459   3.48324   3.49823   3.51468
 Alpha virt. eigenvalues --    3.51977   3.53021   3.55541   3.56546   3.56935
 Alpha virt. eigenvalues --    3.57673   3.59145   3.60117   3.61207   3.62272
 Alpha virt. eigenvalues --    3.63910   3.65500   3.65971   3.67737   3.69779
 Alpha virt. eigenvalues --    3.70592   3.71130   3.73641   3.74672   3.76274
 Alpha virt. eigenvalues --    3.77129   3.78493   3.79170   3.79851   3.80684
 Alpha virt. eigenvalues --    3.82240   3.83889   3.84169   3.85547   3.86292
 Alpha virt. eigenvalues --    3.87232   3.89299   3.89649   3.91205   3.91769
 Alpha virt. eigenvalues --    3.92971   3.93845   3.94927   3.95219   3.96703
 Alpha virt. eigenvalues --    3.99412   4.00262   4.01478   4.02531   4.03634
 Alpha virt. eigenvalues --    4.04768   4.05882   4.06888   4.07436   4.08617
 Alpha virt. eigenvalues --    4.09455   4.10429   4.11542   4.12479   4.13145
 Alpha virt. eigenvalues --    4.15764   4.16607   4.18213   4.18793   4.20015
 Alpha virt. eigenvalues --    4.20743   4.21706   4.23368   4.24618   4.25799
 Alpha virt. eigenvalues --    4.26825   4.27767   4.29120   4.30585   4.32905
 Alpha virt. eigenvalues --    4.34092   4.34902   4.36058   4.37214   4.39468
 Alpha virt. eigenvalues --    4.39813   4.42160   4.44096   4.45284   4.47261
 Alpha virt. eigenvalues --    4.48918   4.51057   4.51889   4.53188   4.54328
 Alpha virt. eigenvalues --    4.57308   4.61958   4.64041   4.65592   4.68019
 Alpha virt. eigenvalues --    4.68854   4.70750   4.72731   4.73958   4.74535
 Alpha virt. eigenvalues --    4.75019   4.78125   4.78885   4.79296   4.79681
 Alpha virt. eigenvalues --    4.80392   4.81326   4.82775   4.85339   4.88507
 Alpha virt. eigenvalues --    4.90053   4.92869   4.94301   4.94979   4.97813
 Alpha virt. eigenvalues --    4.98055   4.99553   5.01266   5.01777   5.02337
 Alpha virt. eigenvalues --    5.03516   5.04466   5.05651   5.06192   5.07651
 Alpha virt. eigenvalues --    5.08842   5.10178   5.14074   5.14805   5.16330
 Alpha virt. eigenvalues --    5.17118   5.17580   5.18271   5.20963   5.21559
 Alpha virt. eigenvalues --    5.22718   5.23340   5.24706   5.25301   5.28843
 Alpha virt. eigenvalues --    5.29870   5.30276   5.32717   5.35235   5.36470
 Alpha virt. eigenvalues --    5.37412   5.40162   5.41786   5.43525   5.47508
 Alpha virt. eigenvalues --    5.52832   5.56615   5.57513   5.60809   5.61901
 Alpha virt. eigenvalues --    5.67483   5.68052   5.70342   5.70537   5.72229
 Alpha virt. eigenvalues --    5.73764   5.78029   5.78975   5.80157   5.80718
 Alpha virt. eigenvalues --    5.82697   5.84963   5.86820   5.88229   5.95068
 Alpha virt. eigenvalues --    5.97278   5.99177   6.03772   6.04989   6.06738
 Alpha virt. eigenvalues --    6.17935   6.26741   6.29258   6.32805   6.39703
 Alpha virt. eigenvalues --    6.46160   6.51111   6.53416   6.54793   6.58486
 Alpha virt. eigenvalues --    6.65057   6.68142   6.69423   6.78892   6.82881
 Alpha virt. eigenvalues --    6.88891   6.90772   6.91772   6.94089   6.97695
 Alpha virt. eigenvalues --    7.08212   7.11692   7.14387   7.16553   7.20283
 Alpha virt. eigenvalues --    7.28474   7.47526   9.63250   9.75991  11.44292
 Alpha virt. eigenvalues --   12.31368  12.45649  12.72119  12.83853  13.23968
 Alpha virt. eigenvalues --   13.49045  13.61925  13.68694  13.78897
          Condensed to atoms (all electrons):
              1          2          3          4          5          6
     1  C    5.113042   0.422789   0.163367  -0.017310  -0.045192   0.004973
     2  H    0.422789   0.488823  -0.066993   0.007253   0.005086  -0.000377
     3  C    0.163367  -0.066993   5.473278   0.374427   0.272075  -0.105058
     4  H   -0.017310   0.007253   0.374427   0.472517  -0.017066   0.000315
     5  C   -0.045192   0.005086   0.272075  -0.017066   4.530703   0.745848
     6  O    0.004973  -0.000377  -0.105058   0.000315   0.745848   7.840711
     7  N   -0.037823   0.001881   0.224166  -0.016231  -0.064300  -0.001643
     8  H    0.008691  -0.000478  -0.022812  -0.010569  -0.001220   0.005605
     9  C    0.271059  -0.023907  -0.037023  -0.005847   0.003000  -0.000257
    10  H   -0.032540   0.000550  -0.009693   0.000985  -0.000699   0.000033
    11  H   -0.030476  -0.006664   0.007671  -0.000307   0.000042   0.000008
    12  H   -0.047130   0.006739  -0.000702   0.003224   0.000986  -0.000009
    13  O    0.238207  -0.039009  -0.029236   0.005165  -0.007400  -0.000046
    14  H   -0.024768  -0.005413   0.005115  -0.000125  -0.000049   0.000015
    15  C   -0.008797  -0.001321  -0.053302   0.006365  -0.004716   0.017410
    16  C    0.001026   0.000665   0.005706  -0.000347  -0.001000  -0.004736
    17  H   -0.000065  -0.000039  -0.002336   0.000058   0.001209   0.005401
    18  H    0.000095  -0.000014  -0.000695   0.000021  -0.000037   0.000101
    19  H   -0.000568  -0.000042   0.001982   0.000047  -0.000047  -0.000110
    20  N    0.026441   0.003363  -0.106325  -0.002077   0.396331  -0.121585
    21  H   -0.009654  -0.003880   0.005996  -0.002362  -0.027423   0.003635
    22  C   -0.000855  -0.000130   0.007220  -0.000180  -0.057427  -0.018631
    23  H    0.000468   0.000071  -0.001289   0.000091   0.000679  -0.000167
    24  H   -0.000470  -0.000103   0.000610  -0.000005   0.003238   0.000185
    25  H   -0.000457  -0.000057   0.004752  -0.000102  -0.012075   0.031123
    26  O    0.007256   0.015114   0.004906  -0.000281   0.001212  -0.002980
              7          8          9         10         11         12
     1  C   -0.037823   0.008691   0.271059  -0.032540  -0.030476  -0.047130
     2  H    0.001881  -0.000478  -0.023907   0.000550  -0.006664   0.006739
     3  C    0.224166  -0.022812  -0.037023  -0.009693   0.007671  -0.000702
     4  H   -0.016231  -0.010569  -0.005847   0.000985  -0.000307   0.003224
     5  C   -0.064300  -0.001220   0.003000  -0.000699   0.000042   0.000986
     6  O   -0.001643   0.005605  -0.000257   0.000033   0.000008  -0.000009
     7  N    6.556075   0.364914   0.007050  -0.003654   0.000987   0.000113
     8  H    0.364914   0.557261  -0.000330   0.000114   0.000042  -0.000503
     9  C    0.007050  -0.000330   5.034723   0.390717   0.398261   0.402291
    10  H   -0.003654   0.000114   0.390717   0.536431  -0.020143  -0.021792
    11  H    0.000987   0.000042   0.398261  -0.020143   0.566353  -0.029707
    12  H    0.000113  -0.000503   0.402291  -0.021792  -0.029707   0.547127
    13  O    0.002213  -0.000104  -0.035886   0.005007  -0.004242   0.001827
    14  H   -0.000508   0.000044  -0.003641   0.000219   0.006738  -0.001399
    15  C    0.312048  -0.017026  -0.000952   0.000878  -0.000002  -0.000217
    16  C   -0.093579   0.003026  -0.000118   0.000349  -0.000017  -0.000043
    17  H   -0.002550  -0.000868   0.000007   0.000025   0.000001   0.000002
    18  H    0.007350   0.000042  -0.000025   0.000087  -0.000002  -0.000005
    19  H    0.013855  -0.005121   0.000264  -0.000194   0.000003   0.000008
    20  N    0.008504   0.000546   0.000490   0.000102   0.000010  -0.000041
    21  H    0.000291  -0.000094   0.001684  -0.000298  -0.000124  -0.000083
    22  C   -0.000303   0.000010   0.000010   0.000001  -0.000002   0.000004
    23  H    0.000002   0.000001   0.000006   0.000000   0.000000   0.000000
    24  H    0.000021  -0.000001  -0.000014   0.000000   0.000000   0.000000
    25  H   -0.000123  -0.000034   0.000007   0.000000  -0.000001   0.000000
    26  O   -0.131696   0.005371  -0.006776   0.003746  -0.000252   0.000131
             13         14         15         16         17         18
     1  C    0.238207  -0.024768  -0.008797   0.001026  -0.000065   0.000095
     2  H   -0.039009  -0.005413  -0.001321   0.000665  -0.000039  -0.000014
     3  C   -0.029236   0.005115  -0.053302   0.005706  -0.002336  -0.000695
     4  H    0.005165  -0.000125   0.006365  -0.000347   0.000058   0.000021
     5  C   -0.007400  -0.000049  -0.004716  -0.001000   0.001209  -0.000037
     6  O   -0.000046   0.000015   0.017410  -0.004736   0.005401   0.000101
     7  N    0.002213  -0.000508   0.312048  -0.093579  -0.002550   0.007350
     8  H   -0.000104   0.000044  -0.017026   0.003026  -0.000868   0.000042
     9  C   -0.035886  -0.003641  -0.000952  -0.000118   0.000007  -0.000025
    10  H    0.005007   0.000219   0.000878   0.000349   0.000025   0.000087
    11  H   -0.004242   0.006738  -0.000002  -0.000017   0.000001  -0.000002
    12  H    0.001827  -0.001399  -0.000217  -0.000043   0.000002  -0.000005
    13  O    7.852481   0.338436   0.000143   0.000005   0.000000   0.000000
    14  H    0.338436   0.500065  -0.000072  -0.000002   0.000000   0.000000
    15  C    0.000143  -0.000072   4.579574   0.289303  -0.020237  -0.038353
    16  C    0.000005  -0.000002   0.289303   5.050921   0.374929   0.392981
    17  H    0.000000   0.000000  -0.020237   0.374929   0.552062  -0.013251
    18  H    0.000000   0.000000  -0.038353   0.392981  -0.013251   0.551865
    19  H    0.000000   0.000000  -0.051305   0.388783  -0.031993  -0.023988
    20  N   -0.029966   0.001435  -0.002049  -0.000090   0.000068   0.000007
    21  H    0.054364  -0.002755   0.000230   0.000010  -0.000004   0.000000
    22  C   -0.000630  -0.000053  -0.000060  -0.000003   0.000009   0.000000
    23  H    0.000021  -0.000001  -0.000014   0.000000   0.000000   0.000000
    24  H    0.000034   0.000000   0.000040   0.000000   0.000000   0.000000
    25  H   -0.000088  -0.000004  -0.000055   0.000012  -0.000011  -0.000001
    26  O    0.000228   0.000005   0.720438  -0.069564  -0.000708   0.007764
             19         20         21         22         23         24
     1  C   -0.000568   0.026441  -0.009654  -0.000855   0.000468  -0.000470
     2  H   -0.000042   0.003363  -0.003880  -0.000130   0.000071  -0.000103
     3  C    0.001982  -0.106325   0.005996   0.007220  -0.001289   0.000610
     4  H    0.000047  -0.002077  -0.002362  -0.000180   0.000091  -0.000005
     5  C   -0.000047   0.396331  -0.027423  -0.057427   0.000679   0.003238
     6  O   -0.000110  -0.121585   0.003635  -0.018631  -0.000167   0.000185
     7  N    0.013855   0.008504   0.000291  -0.000303   0.000002   0.000021
     8  H   -0.005121   0.000546  -0.000094   0.000010   0.000001  -0.000001
     9  C    0.000264   0.000490   0.001684   0.000010   0.000006  -0.000014
    10  H   -0.000194   0.000102  -0.000298   0.000001   0.000000   0.000000
    11  H    0.000003   0.000010  -0.000124  -0.000002   0.000000   0.000000
    12  H    0.000008  -0.000041  -0.000083   0.000004   0.000000   0.000000
    13  O    0.000000  -0.029966   0.054364  -0.000630   0.000021   0.000034
    14  H    0.000000   0.001435  -0.002755  -0.000053  -0.000001   0.000000
    15  C   -0.051305  -0.002049   0.000230  -0.000060  -0.000014   0.000040
    16  C    0.388783  -0.000090   0.000010  -0.000003   0.000000   0.000000
    17  H   -0.031993   0.000068  -0.000004   0.000009   0.000000   0.000000
    18  H   -0.023988   0.000007   0.000000   0.000000   0.000000   0.000000
    19  H    0.601063  -0.000008   0.000000   0.000000   0.000000   0.000000
    20  N   -0.000008   6.490195   0.363473   0.276658  -0.035503  -0.037172
    21  H    0.000000   0.363473   0.483007  -0.029085  -0.004221  -0.002339
    22  C    0.000000   0.276658  -0.029085   4.803880   0.401851   0.398368
    23  H    0.000000  -0.035503  -0.004221   0.401851   0.619646  -0.045383
    24  H    0.000000  -0.037172  -0.002339   0.398368  -0.045383   0.616378
    25  H    0.000001  -0.042607   0.004637   0.397231  -0.029030  -0.025402
    26  O    0.002437  -0.001505  -0.000049  -0.000061   0.000000   0.000002
             25         26
     1  C   -0.000457   0.007256
     2  H   -0.000057   0.015114
     3  C    0.004752   0.004906
     4  H   -0.000102  -0.000281
     5  C   -0.012075   0.001212
     6  O    0.031123  -0.002980
     7  N   -0.000123  -0.131696
     8  H   -0.000034   0.005371
     9  C    0.000007  -0.006776
    10  H    0.000000   0.003746
    11  H   -0.000001  -0.000252
    12  H    0.000000   0.000131
    13  O   -0.000088   0.000228
    14  H   -0.000004   0.000005
    15  C   -0.000055   0.720438
    16  C    0.000012  -0.069564
    17  H   -0.000011  -0.000708
    18  H   -0.000001   0.007764
    19  H    0.000001   0.002437
    20  N   -0.042607  -0.001505
    21  H    0.004637  -0.000049
    22  C    0.397231  -0.000061
    23  H   -0.029030   0.000000
    24  H   -0.025402   0.000002
    25  H    0.545287   0.000016
    26  O    0.000016   7.816047
 Mulliken atomic charges:
              1
     1  C   -0.001309
     2  H    0.196092
     3  C   -0.115807
     4  H    0.202340
     5  C    0.278242
     6  O   -0.399766
     7  N   -0.147059
     8  H    0.113492
     9  C   -0.394792
    10  H    0.149771
    11  H    0.111822
    12  H    0.139177
    13  O   -0.351526
    14  H    0.186716
    15  C    0.272048
    16  C   -0.338217
    17  H    0.138289
    18  H    0.116061
    19  H    0.104934
    20  N   -0.188697
    21  H    0.165044
    22  C   -0.177824
    23  H    0.092773
    24  H    0.092013
    25  H    0.126981
    26  O   -0.370797
 Sum of Mulliken atomic charges =   0.00000
 Mulliken charges with hydrogens summed into heavy atoms:
              1
     1  C    0.194783
     3  C    0.086533
     5  C    0.278242
     6  O   -0.399766
     7  N   -0.033568
     9  C    0.005978
    13  O   -0.164810
    15  C    0.272048
    16  C    0.021067
    20  N   -0.023652
    22  C    0.133943
    26  O   -0.370797
 Sum of Mulliken charges with hydrogens summed into heavy atoms =   0.00000
 Electronic spatial extent (au):  <R**2>=           2242.6559
 Charge=              0.0000 electrons
 Dipole moment (field-independent basis, Debye):
    X=              0.9058    Y=              2.6710    Z=             -1.4337  Tot=              3.1639
 Quadrupole moment (field-independent basis, Debye-Ang):
   XX=            -62.5836   YY=            -70.2357   ZZ=            -73.6108
   XY=              3.3314   XZ=              7.5645   YZ=              2.8302
 Traceless Quadrupole moment (field-independent basis, Debye-Ang):
   XX=              6.2265   YY=             -1.4257   ZZ=             -4.8008
   XY=              3.3314   XZ=              7.5645   YZ=              2.8302
 Octapole moment (field-independent basis, Debye-Ang**2):
  XXX=             11.6476  YYY=             31.4931  ZZZ=            -11.5835  XYY=              6.2163
  XXY=            -13.7669  XXZ=              0.3442  XZZ=              6.0848  YZZ=              1.7337
  YYZ=             15.3107  XYZ=              0.7095
 Hexadecapole moment (field-independent basis, Debye-Ang**3):
 XXXX=          -1461.9487 YYYY=          -1014.8945 ZZZZ=           -241.3266 XXXY=             19.0067
 XXXZ=             12.4098 YYYX=             53.3588 YYYZ=             23.0348 ZZZX=             17.8636
 ZZZY=              6.0231 XXYY=           -405.3010 XXZZ=           -305.0104 YYZZ=           -220.4844
 XXYZ=              8.6059 YYXZ=             16.9503 ZZXY=              6.1513
 N-N= 7.854408299906D+02 E-N=-2.997352549460D+03  KE= 6.059747535088D+02
 Calculating spin-rotation constants.
 Leave Link  601 at Wed Apr 10 08:35:48 2013, MaxMem= 8589934592 cpu:     487.0
 (Enter /system/software/linux-x86_64/gaussian/g09/A.02__pgi_8.0-6__acml/l9999.exe)

 Test job not archived.
 1\1\GINC-CARIBOU\SP\RM06\Gen\C7H14N2O3\KUPROV\10-Apr-2013\0\\#P Geom=A
 llCheck Guess=TCheck SCRF=Check GenChk RM06/ChkBas NMR=ReadFC IOp(3/6=
 22)\\J-coupling calculation 1\\0,1\C,0,-0.6307198676,-1.7103492037,1.1
 924416166\H,0,-0.047453577,-0.8960501073,1.6326163637\C,0,-1.806301363
 8,-1.1234493821,0.4084107125\H,0,-2.5062405757,-1.9584815564,0.2825724
 947\C,0,-2.5889667811,-0.0025923423,1.1235970493\O,0,-3.0543112606,0.9
 195303082,0.4864342182\N,0,-1.4478813039,-0.6730335036,-0.9177797151\H
 ,0,-2.2103779224,-0.6925119219,-1.5756741788\C,0,0.2581978782,-2.58178
 47294,0.3422538053\H,0,0.8030873636,-1.9944455118,-0.3936683059\H,0,0.
 9915855941,-3.0890947244,0.9736958958\H,0,-0.3319796899,-3.341420589,-
 0.1746454565\O,0,-1.236788376,-2.4933136819,2.2269919419\H,0,-0.536839
 8164,-2.9011433419,2.7408313116\C,0,-0.6047991291,0.4021822325,-1.0589
 798004\C,0,-0.7350007532,1.1263430157,-2.3664685869\H,0,-1.5804695508,
 1.8128049863,-2.2857936973\H,0,0.1660700724,1.7020011783,-2.5570884766
 \H,0,-0.9270346208,0.447898559,-3.1978030746\N,0,-2.7476489508,-0.1626
 681076,2.4525522333\H,0,-2.3480003065,-0.9904550615,2.8704543935\C,0,-
 3.4986908048,0.7689955133,3.2542493207\H,0,-4.3788289827,0.297587423,3
 .6954876338\H,0,-2.8864386906,1.1814575575,4.057339405\H,0,-3.82416128
 93,1.5817386723,2.6095857441\O,0,0.1768217646,0.7284845787,-0.19515975
 77\\Version=EM64L-G09RevA.02\State=1-A\HF=-610.2162722\RMSD=3.130e-09\
 Dipole=-0.0548355,-1.2222107,0.2294903\Quadrupole=-4.6310039,-3.688384
 9,8.3193887,-2.3258672,0.5492566,-1.4125694\PG=C01 [X(C7H14N2O3)]\\@


 A MAN SHOULD NEVER BE ASHAMED TO OWN HE HAS BEEN IN THE WRONG
 WHICH IS BUT SAYING IN OTHER WORDS,
 THAT HE IS WISER TODAY THAN HE WAS YESTERDAY.

                          -- JONATHAN SWIFT
 Job cpu time:  4 days  2 hours 32 minutes 44.5 seconds.
 File lengths (MBytes):  RWF=   1470 Int=      0 D2E=      0 Chk=     41 Scr=      1
 Normal termination of Gaussian 09 at Wed Apr 10 08:35:48 2013.
