 Entering Gaussian System, Link 0=g09
 Input=tryptophan.gjf
 Output=tryptophan.log
 Initial command:
 /system/software/linux-x86_64/gaussian/g09/D.01__pgi_12.10__atlas/l1.exe "/export/home/spin_dynamics/kuprov/zenawi/Gau-58554.inp" -scrdir="/export/home/spin_dynamics/kuprov/zenawi/"
 Entering Link 1 = /system/software/linux-x86_64/gaussian/g09/D.01__pgi_12.10__atlas/l1.exe PID=     58555.
  
 Copyright (c) 1988,1990,1992,1993,1995,1998,2003,2009,2013,
            Gaussian, Inc.  All Rights Reserved.
  
 This is part of the Gaussian(R) 09 program.  It is based on
 the Gaussian(R) 03 system (copyright 2003, Gaussian, Inc.),
 the Gaussian(R) 98 system (copyright 1998, Gaussian, Inc.),
 the Gaussian(R) 94 system (copyright 1995, Gaussian, Inc.),
 the Gaussian 92(TM) system (copyright 1992, Gaussian, Inc.),
 the Gaussian 90(TM) system (copyright 1990, Gaussian, Inc.),
 the Gaussian 88(TM) system (copyright 1988, Gaussian, Inc.),
 the Gaussian 86(TM) system (copyright 1986, Carnegie Mellon
 University), and the Gaussian 82(TM) system (copyright 1983,
 Carnegie Mellon University). Gaussian is a federally registered
 trademark of Gaussian, Inc.
  
 This software contains proprietary and confidential information,
 including trade secrets, belonging to Gaussian, Inc.
  
 This software is provided under written license and may be
 used, copied, transmitted, or stored only in accord with that
 written license.
  
 The following legend is applicable only to US Government
 contracts under FAR:
  
                    RESTRICTED RIGHTS LEGEND
  
 Use, reproduction and disclosure by the US Government is
 subject to restrictions as set forth in subparagraphs (a)
 and (c) of the Commercial Computer Software - Restricted
 Rights clause in FAR 52.227-19.
  
 Gaussian, Inc.
 340 Quinnipiac St., Bldg. 40, Wallingford CT 06492
  
  
 ---------------------------------------------------------------
 Warning -- This program may not be used in any manner that
 competes with the business of Gaussian, Inc. or will provide
 assistance to any competitor of Gaussian, Inc.  The licensee
 of this program is prohibited from giving any competitor of
 Gaussian, Inc. access to this program.  By using this program,
 the user acknowledges that Gaussian, Inc. is engaged in the
 business of creating and licensing software in the field of
 computational chemistry and represents and warrants to the
 licensee that it is not a competitor of Gaussian, Inc. and that
 it will not use this program in any manner prohibited above.
 ---------------------------------------------------------------
  

 Cite this work as:
 Gaussian 09, Revision D.01,
 M. J. Frisch, G. W. Trucks, H. B. Schlegel, G. E. Scuseria, 
 M. A. Robb, J. R. Cheeseman, G. Scalmani, V. Barone, B. Mennucci, 
 G. A. Petersson, H. Nakatsuji, M. Caricato, X. Li, H. P. Hratchian, 
 A. F. Izmaylov, J. Bloino, G. Zheng, J. L. Sonnenberg, M. Hada, 
 M. Ehara, K. Toyota, R. Fukuda, J. Hasegawa, M. Ishida, T. Nakajima, 
 Y. Honda, O. Kitao, H. Nakai, T. Vreven, J. A. Montgomery, Jr., 
 J. E. Peralta, F. Ogliaro, M. Bearpark, J. J. Heyd, E. Brothers, 
 K. N. Kudin, V. N. Staroverov, T. Keith, R. Kobayashi, J. Normand, 
 K. Raghavachari, A. Rendell, J. C. Burant, S. S. Iyengar, J. Tomasi, 
 M. Cossi, N. Rega, J. M. Millam, M. Klene, J. E. Knox, J. B. Cross, 
 V. Bakken, C. Adamo, J. Jaramillo, R. Gomperts, R. E. Stratmann, 
 O. Yazyev, A. J. Austin, R. Cammi, C. Pomelli, J. W. Ochterski, 
 R. L. Martin, K. Morokuma, V. G. Zakrzewski, G. A. Voth, 
 P. Salvador, J. J. Dannenberg, S. Dapprich, A. D. Daniels, 
 O. Farkas, J. B. Foresman, J. V. Ortiz, J. Cioslowski, 
 and D. J. Fox, Gaussian, Inc., Wallingford CT, 2013.
 
 ******************************************
 Gaussian 09:  EM64L-G09RevD.01 24-Apr-2013
                30-Sep-2013 
 ******************************************
 %Chk=tryptophan.chk
 %Mem=128GB
 %NProcShared=24
 Will use up to   24 processors via shared memory.
 ------------------------------------------------------------
 #p opt=tight m06/cc-pvtz scf=tight integral=(grid=ultrafine)
 ------------------------------------------------------------
 1/7=10,14=-1,18=20,19=15,26=4,38=1/1,3;
 2/9=110,12=2,17=6,18=5,40=1/2;
 3/5=16,6=1,11=2,16=1,25=1,30=1,71=1,74=-54,75=-5/1,2,3;
 4//1;
 5/5=2,32=2,38=5/2;
 6/7=2,8=2,9=2,10=2,28=1/1;
 7//1,2,3,16;
 1/7=10,14=-1,18=20,19=15,26=4/3(2);
 2/9=110/2;
 99//99;
 2/9=110/2;
 3/5=16,6=1,11=2,16=1,25=1,30=1,71=1,74=-54,75=-5/1,2,3;
 4/5=5,16=3,69=1/1;
 5/5=2,32=2,38=5/2;
 7//1,2,3,16;
 1/7=10,14=-1,18=20,19=15,26=4/3(-5);
 2/9=110/2;
 6/7=2,8=2,9=2,10=2,19=2,28=1/1;
 99/9=1/99;
 Leave Link    1 at Mon Sep 30 20:04:25 2013, MaxMem= 17179869184 cpu:         5.1
 (Enter /system/software/linux-x86_64/gaussian/g09/D.01__pgi_12.10__atlas/l101.exe)
 ---------------------
 Geometry optimisation
 ---------------------
 Symbolic Z-matrix:
 Charge =  0 Multiplicity = 1
 C                    -4.73025  -0.64691   1.25488 
 C                    -3.48845  -0.31696   1.5806 
 C                    -3.22505   0.77287   2.40639 
 C                    -4.27854   1.54914   2.79672 
 C                    -5.59628   1.23997   2.36708 
 C                    -5.82546   0.13849   1.59678 
 C                    -4.68583  -1.97588   0.51792 
 C                    -3.38715  -2.36186   0.49899 
 H                    -2.22729   0.99912   2.71974 
 H                    -4.10975   2.39696   3.42728 
 H                    -6.41211   1.87108   2.65173 
 H                    -6.81305  -0.11603   1.27307 
 H                    -3.03928  -3.3302    0.20538 
 N                    -2.5164   -1.24372   0.95372 
 H                    -1.79135  -1.53514   1.57772 
 C                    -5.88456  -2.74481  -0.06808 
 H                    -6.28308  -3.40391   0.67467 
 H                    -6.64011  -2.05037  -0.37105 
 C                    -5.42229  -3.5646   -1.28703 
 H                    -4.66674  -4.25904  -0.98406 
 C                    -6.62102  -4.33353  -1.87303 
 O                    -7.78236  -3.8593   -1.77318 
 N                    -4.87479  -2.65911  -2.30744 
 H                    -4.57462  -3.19145  -3.09897 
 C                    -5.9128   -1.70506  -2.72367 
 C                    -6.84708  -2.04787  -3.89891 
 H                    -7.79498  -1.57407  -3.75093 
 H                    -6.41309  -1.69965  -4.81285 
 H                    -6.98231  -3.10809  -3.94951 
 O                    -6.03794  -0.60822  -2.11964 
 N                    -6.40864  -5.62148  -2.54904 
 H                    -6.47347  -6.36308  -1.88133 
 C                    -7.43373  -5.80524  -3.5865 
 H                    -7.27914  -6.74272  -4.07856 
 H                    -8.40382  -5.79502  -3.13516 
 H                    -7.36437  -5.01173  -4.30095 
 
 NAtoms=     36 NQM=       36 NQMF=       0 NMMI=      0 NMMIF=      0
                NMic=       0 NMicF=      0.
                    Isotopes and Nuclear Properties:
 (Nuclear quadrupole moments (NQMom) in fm**2, nuclear magnetic moments (NMagM)
  in nuclear magnetons)

  Atom         1           2           3           4           5           6           7           8           9          10
 IAtWgt=          12          12          12          12          12          12          12          12           1           1
 AtmWgt=  12.0000000  12.0000000  12.0000000  12.0000000  12.0000000  12.0000000  12.0000000  12.0000000   1.0078250   1.0078250
 NucSpn=           0           0           0           0           0           0           0           0           1           1
 AtZEff=   0.0000000   0.0000000   0.0000000   0.0000000   0.0000000   0.0000000   0.0000000   0.0000000   0.0000000   0.0000000
 NQMom=    0.0000000   0.0000000   0.0000000   0.0000000   0.0000000   0.0000000   0.0000000   0.0000000   0.0000000   0.0000000
 NMagM=    0.0000000   0.0000000   0.0000000   0.0000000   0.0000000   0.0000000   0.0000000   0.0000000   2.7928460   2.7928460
 AtZNuc=   6.0000000   6.0000000   6.0000000   6.0000000   6.0000000   6.0000000   6.0000000   6.0000000   1.0000000   1.0000000

  Atom        11          12          13          14          15          16          17          18          19          20
 IAtWgt=           1           1           1          14           1          12           1           1          12           1
 AtmWgt=   1.0078250   1.0078250   1.0078250  14.0030740   1.0078250  12.0000000   1.0078250   1.0078250  12.0000000   1.0078250
 NucSpn=           1           1           1           2           1           0           1           1           0           1
 AtZEff=   0.0000000   0.0000000   0.0000000   0.0000000   0.0000000   0.0000000   0.0000000   0.0000000   0.0000000   0.0000000
 NQMom=    0.0000000   0.0000000   0.0000000   2.0440000   0.0000000   0.0000000   0.0000000   0.0000000   0.0000000   0.0000000
 NMagM=    2.7928460   2.7928460   2.7928460   0.4037610   2.7928460   0.0000000   2.7928460   2.7928460   0.0000000   2.7928460
 AtZNuc=   1.0000000   1.0000000   1.0000000   7.0000000   1.0000000   6.0000000   1.0000000   1.0000000   6.0000000   1.0000000

  Atom        21          22          23          24          25          26          27          28          29          30
 IAtWgt=          12          16          14           1          12          12           1           1           1          16
 AtmWgt=  12.0000000  15.9949146  14.0030740   1.0078250  12.0000000  12.0000000   1.0078250   1.0078250   1.0078250  15.9949146
 NucSpn=           0           0           2           1           0           0           1           1           1           0
 AtZEff=   0.0000000   0.0000000   0.0000000   0.0000000   0.0000000   0.0000000   0.0000000   0.0000000   0.0000000   0.0000000
 NQMom=    0.0000000   0.0000000   2.0440000   0.0000000   0.0000000   0.0000000   0.0000000   0.0000000   0.0000000   0.0000000
 NMagM=    0.0000000   0.0000000   0.4037610   2.7928460   0.0000000   0.0000000   2.7928460   2.7928460   2.7928460   0.0000000
 AtZNuc=   6.0000000   8.0000000   7.0000000   1.0000000   6.0000000   6.0000000   1.0000000   1.0000000   1.0000000   8.0000000

  Atom        31          32          33          34          35          36
 IAtWgt=          14           1          12           1           1           1
 AtmWgt=  14.0030740   1.0078250  12.0000000   1.0078250   1.0078250   1.0078250
 NucSpn=           2           1           0           1           1           1
 AtZEff=   0.0000000   0.0000000   0.0000000   0.0000000   0.0000000   0.0000000
 NQMom=    2.0440000   0.0000000   0.0000000   0.0000000   0.0000000   0.0000000
 NMagM=    0.4037610   2.7928460   0.0000000   2.7928460   2.7928460   2.7928460
 AtZNuc=   7.0000000   1.0000000   6.0000000   1.0000000   1.0000000   1.0000000
 Leave Link  101 at Mon Sep 30 20:04:27 2013, MaxMem= 17179869184 cpu:        36.1
 (Enter /system/software/linux-x86_64/gaussian/g09/D.01__pgi_12.10__atlas/l103.exe)

 GradGradGradGradGradGradGradGradGradGradGradGradGradGradGradGradGradGrad
 Berny optimization.
 Initialization pass.
                           ----------------------------
                           !    Initial Parameters    !
                           ! (Angstroms and Degrees)  !
 --------------------------                            --------------------------
 ! Name  Definition              Value          Derivative Info.                !
 --------------------------------------------------------------------------------
 ! R1    R(1,2)                  1.3255         estimate D2E/DX2                !
 ! R2    R(1,6)                  1.3904         estimate D2E/DX2                !
 ! R3    R(1,7)                  1.5203         estimate D2E/DX2                !
 ! R4    R(2,3)                  1.3925         estimate D2E/DX2                !
 ! R5    R(2,14)                 1.4821         estimate D2E/DX2                !
 ! R6    R(3,4)                  1.3656         estimate D2E/DX2                !
 ! R7    R(3,9)                  1.07           estimate D2E/DX2                !
 ! R8    R(4,5)                  1.4201         estimate D2E/DX2                !
 ! R9    R(4,10)                 1.07           estimate D2E/DX2                !
 ! R10   R(5,6)                  1.3635         estimate D2E/DX2                !
 ! R11   R(5,11)                 1.07           estimate D2E/DX2                !
 ! R12   R(6,12)                 1.07           estimate D2E/DX2                !
 ! R13   R(7,8)                  1.355          estimate D2E/DX2                !
 ! R14   R(7,16)                 1.54           estimate D2E/DX2                !
 ! R15   R(8,13)                 1.07           estimate D2E/DX2                !
 ! R16   R(8,14)                 1.4884         estimate D2E/DX2                !
 ! R17   R(14,15)                1.0            estimate D2E/DX2                !
 ! R18   R(16,17)                1.07           estimate D2E/DX2                !
 ! R19   R(16,18)                1.07           estimate D2E/DX2                !
 ! R20   R(16,19)                1.54           estimate D2E/DX2                !
 ! R21   R(19,20)                1.07           estimate D2E/DX2                !
 ! R22   R(19,21)                1.54           estimate D2E/DX2                !
 ! R23   R(19,23)                1.47           estimate D2E/DX2                !
 ! R24   R(21,22)                1.2584         estimate D2E/DX2                !
 ! R25   R(21,31)                1.47           estimate D2E/DX2                !
 ! R26   R(23,24)                1.0            estimate D2E/DX2                !
 ! R27   R(23,25)                1.47           estimate D2E/DX2                !
 ! R28   R(25,26)                1.54           estimate D2E/DX2                !
 ! R29   R(25,30)                1.2584         estimate D2E/DX2                !
 ! R30   R(26,27)                1.07           estimate D2E/DX2                !
 ! R31   R(26,28)                1.07           estimate D2E/DX2                !
 ! R32   R(26,29)                1.07           estimate D2E/DX2                !
 ! R33   R(31,32)                1.0            estimate D2E/DX2                !
 ! R34   R(31,33)                1.47           estimate D2E/DX2                !
 ! R35   R(33,34)                1.07           estimate D2E/DX2                !
 ! R36   R(33,35)                1.07           estimate D2E/DX2                !
 ! R37   R(33,36)                1.07           estimate D2E/DX2                !
 ! A1    A(2,1,6)              122.4731         estimate D2E/DX2                !
 ! A2    A(2,1,7)              108.0198         estimate D2E/DX2                !
 ! A3    A(6,1,7)              129.4942         estimate D2E/DX2                !
 ! A4    A(1,2,3)              121.1814         estimate D2E/DX2                !
 ! A5    A(1,2,14)             110.7834         estimate D2E/DX2                !
 ! A6    A(3,2,14)             128.0351         estimate D2E/DX2                !
 ! A7    A(2,3,4)              117.9358         estimate D2E/DX2                !
 ! A8    A(2,3,9)              121.0333         estimate D2E/DX2                !
 ! A9    A(4,3,9)              121.0295         estimate D2E/DX2                !
 ! A10   A(3,4,5)              120.3734         estimate D2E/DX2                !
 ! A11   A(3,4,10)             119.8128         estimate D2E/DX2                !
 ! A12   A(5,4,10)             119.8136         estimate D2E/DX2                !
 ! A13   A(4,5,6)              120.183          estimate D2E/DX2                !
 ! A14   A(4,5,11)             119.9087         estimate D2E/DX2                !
 ! A15   A(6,5,11)             119.9079         estimate D2E/DX2                !
 ! A16   A(1,6,5)              117.5705         estimate D2E/DX2                !
 ! A17   A(1,6,12)             121.2163         estimate D2E/DX2                !
 ! A18   A(5,6,12)             121.2118         estimate D2E/DX2                !
 ! A19   A(1,7,8)              106.4867         estimate D2E/DX2                !
 ! A20   A(1,7,16)             126.7404         estimate D2E/DX2                !
 ! A21   A(8,7,16)             126.7636         estimate D2E/DX2                !
 ! A22   A(7,8,13)             124.9768         estimate D2E/DX2                !
 ! A23   A(7,8,14)             110.0272         estimate D2E/DX2                !
 ! A24   A(13,8,14)            124.9952         estimate D2E/DX2                !
 ! A25   A(2,14,8)             102.4316         estimate D2E/DX2                !
 ! A26   A(2,14,15)            113.1919         estimate D2E/DX2                !
 ! A27   A(8,14,15)            113.3221         estimate D2E/DX2                !
 ! A28   A(7,16,17)            109.4712         estimate D2E/DX2                !
 ! A29   A(7,16,18)            109.4712         estimate D2E/DX2                !
 ! A30   A(7,16,19)            109.4712         estimate D2E/DX2                !
 ! A31   A(17,16,18)           109.4712         estimate D2E/DX2                !
 ! A32   A(17,16,19)           109.4712         estimate D2E/DX2                !
 ! A33   A(18,16,19)           109.4712         estimate D2E/DX2                !
 ! A34   A(16,19,20)           109.4712         estimate D2E/DX2                !
 ! A35   A(16,19,21)           109.4712         estimate D2E/DX2                !
 ! A36   A(16,19,23)           109.4712         estimate D2E/DX2                !
 ! A37   A(20,19,21)           109.4712         estimate D2E/DX2                !
 ! A38   A(20,19,23)           109.4712         estimate D2E/DX2                !
 ! A39   A(21,19,23)           109.4712         estimate D2E/DX2                !
 ! A40   A(19,21,22)           120.0            estimate D2E/DX2                !
 ! A41   A(19,21,31)           120.0            estimate D2E/DX2                !
 ! A42   A(22,21,31)           120.0            estimate D2E/DX2                !
 ! A43   A(19,23,24)           109.4712         estimate D2E/DX2                !
 ! A44   A(19,23,25)           109.4712         estimate D2E/DX2                !
 ! A45   A(24,23,25)           109.4712         estimate D2E/DX2                !
 ! A46   A(23,25,26)           120.0            estimate D2E/DX2                !
 ! A47   A(23,25,30)           120.0            estimate D2E/DX2                !
 ! A48   A(26,25,30)           120.0            estimate D2E/DX2                !
 ! A49   A(25,26,27)           109.4712         estimate D2E/DX2                !
 ! A50   A(25,26,28)           109.4712         estimate D2E/DX2                !
 ! A51   A(25,26,29)           109.4712         estimate D2E/DX2                !
 ! A52   A(27,26,28)           109.4712         estimate D2E/DX2                !
 ! A53   A(27,26,29)           109.4712         estimate D2E/DX2                !
 ! A54   A(28,26,29)           109.4712         estimate D2E/DX2                !
 ! A55   A(21,31,32)           109.4712         estimate D2E/DX2                !
 ! A56   A(21,31,33)           109.4712         estimate D2E/DX2                !
 ! A57   A(32,31,33)           109.4712         estimate D2E/DX2                !
 ! A58   A(31,33,34)           109.4712         estimate D2E/DX2                !
 ! A59   A(31,33,35)           109.4712         estimate D2E/DX2                !
 ! A60   A(31,33,36)           109.4712         estimate D2E/DX2                !
 ! A61   A(34,33,35)           109.4712         estimate D2E/DX2                !
 ! A62   A(34,33,36)           109.4712         estimate D2E/DX2                !
 ! A63   A(35,33,36)           109.4712         estimate D2E/DX2                !
 ! D1    D(6,1,2,3)              6.6547         estimate D2E/DX2                !
 ! D2    D(6,1,2,14)          -173.2597         estimate D2E/DX2                !
 ! D3    D(7,1,2,3)           -172.1502         estimate D2E/DX2                !
 ! D4    D(7,1,2,14)             7.9355         estimate D2E/DX2                !
 ! D5    D(2,1,6,5)             -4.1585         estimate D2E/DX2                !
 ! D6    D(2,1,6,12)           176.2679         estimate D2E/DX2                !
 ! D7    D(7,1,6,5)            174.3687         estimate D2E/DX2                !
 ! D8    D(7,1,6,12)            -5.205          estimate D2E/DX2                !
 ! D9    D(2,1,7,8)              1.863          estimate D2E/DX2                !
 ! D10   D(2,1,7,16)          -179.1897         estimate D2E/DX2                !
 ! D11   D(6,1,7,8)           -176.8304         estimate D2E/DX2                !
 ! D12   D(6,1,7,16)             2.1169         estimate D2E/DX2                !
 ! D13   D(1,2,3,4)             -4.4611         estimate D2E/DX2                !
 ! D14   D(1,2,3,9)            175.9635         estimate D2E/DX2                !
 ! D15   D(14,2,3,4)           175.4373         estimate D2E/DX2                !
 ! D16   D(14,2,3,9)            -4.1382         estimate D2E/DX2                !
 ! D17   D(1,2,14,8)           -13.827          estimate D2E/DX2                !
 ! D18   D(1,2,14,15)         -136.2041         estimate D2E/DX2                !
 ! D19   D(3,2,14,8)           166.266          estimate D2E/DX2                !
 ! D20   D(3,2,14,15)           43.8889         estimate D2E/DX2                !
 ! D21   D(2,3,4,5)              0.1053         estimate D2E/DX2                !
 ! D22   D(2,3,4,10)          -179.697          estimate D2E/DX2                !
 ! D23   D(9,3,4,5)            179.6808         estimate D2E/DX2                !
 ! D24   D(9,3,4,10)            -0.1215         estimate D2E/DX2                !
 ! D25   D(3,4,5,6)              2.1807         estimate D2E/DX2                !
 ! D26   D(3,4,5,11)          -178.0524         estimate D2E/DX2                !
 ! D27   D(10,4,5,6)          -178.017          estimate D2E/DX2                !
 ! D28   D(10,4,5,11)            1.7499         estimate D2E/DX2                !
 ! D29   D(4,5,6,1)             -0.2669         estimate D2E/DX2                !
 ! D30   D(4,5,6,12)           179.3068         estimate D2E/DX2                !
 ! D31   D(11,5,6,1)           179.9662         estimate D2E/DX2                !
 ! D32   D(11,5,6,12)           -0.4601         estimate D2E/DX2                !
 ! D33   D(1,7,8,13)           168.8785         estimate D2E/DX2                !
 ! D34   D(1,7,8,14)           -10.8091         estimate D2E/DX2                !
 ! D35   D(16,7,8,13)          -10.0684         estimate D2E/DX2                !
 ! D36   D(16,7,8,14)          170.244          estimate D2E/DX2                !
 ! D37   D(1,7,16,17)          -89.37           estimate D2E/DX2                !
 ! D38   D(1,7,16,18)           30.63           estimate D2E/DX2                !
 ! D39   D(1,7,16,19)          150.63           estimate D2E/DX2                !
 ! D40   D(8,7,16,17)           89.37           estimate D2E/DX2                !
 ! D41   D(8,7,16,18)         -150.63           estimate D2E/DX2                !
 ! D42   D(8,7,16,19)          -30.63           estimate D2E/DX2                !
 ! D43   D(7,8,14,2)            14.9717         estimate D2E/DX2                !
 ! D44   D(7,8,14,15)          137.2604         estimate D2E/DX2                !
 ! D45   D(13,8,14,2)         -164.7159         estimate D2E/DX2                !
 ! D46   D(13,8,14,15)         -42.4272         estimate D2E/DX2                !
 ! D47   D(7,16,19,20)          60.0            estimate D2E/DX2                !
 ! D48   D(7,16,19,21)         180.0            estimate D2E/DX2                !
 ! D49   D(7,16,19,23)         -60.0            estimate D2E/DX2                !
 ! D50   D(17,16,19,20)        -60.0            estimate D2E/DX2                !
 ! D51   D(17,16,19,21)         60.0            estimate D2E/DX2                !
 ! D52   D(17,16,19,23)        180.0            estimate D2E/DX2                !
 ! D53   D(18,16,19,20)        180.0            estimate D2E/DX2                !
 ! D54   D(18,16,19,21)        -60.0            estimate D2E/DX2                !
 ! D55   D(18,16,19,23)         60.0            estimate D2E/DX2                !
 ! D56   D(16,19,21,22)         30.0            estimate D2E/DX2                !
 ! D57   D(16,19,21,31)       -150.0            estimate D2E/DX2                !
 ! D58   D(20,19,21,22)        150.0            estimate D2E/DX2                !
 ! D59   D(20,19,21,31)        -30.0            estimate D2E/DX2                !
 ! D60   D(23,19,21,22)        -90.0            estimate D2E/DX2                !
 ! D61   D(23,19,21,31)         90.0            estimate D2E/DX2                !
 ! D62   D(16,19,23,24)        180.0            estimate D2E/DX2                !
 ! D63   D(16,19,23,25)        -60.0            estimate D2E/DX2                !
 ! D64   D(20,19,23,24)         60.0            estimate D2E/DX2                !
 ! D65   D(20,19,23,25)        180.0            estimate D2E/DX2                !
 ! D66   D(21,19,23,24)        -60.0            estimate D2E/DX2                !
 ! D67   D(21,19,23,25)         60.0            estimate D2E/DX2                !
 ! D68   D(19,21,31,32)         90.0            estimate D2E/DX2                !
 ! D69   D(19,21,31,33)       -150.0            estimate D2E/DX2                !
 ! D70   D(22,21,31,32)        -90.0            estimate D2E/DX2                !
 ! D71   D(22,21,31,33)         30.0            estimate D2E/DX2                !
 ! D72   D(19,23,25,26)        -90.0            estimate D2E/DX2                !
 ! D73   D(19,23,25,30)         90.0            estimate D2E/DX2                !
 ! D74   D(24,23,25,26)         30.0            estimate D2E/DX2                !
 ! D75   D(24,23,25,30)       -150.0            estimate D2E/DX2                !
 ! D76   D(23,25,26,27)        150.0            estimate D2E/DX2                !
 ! D77   D(23,25,26,28)        -90.0            estimate D2E/DX2                !
 ! D78   D(23,25,26,29)         30.0            estimate D2E/DX2                !
 ! D79   D(30,25,26,27)        -30.0            estimate D2E/DX2                !
 ! D80   D(30,25,26,28)         90.0            estimate D2E/DX2                !
 ! D81   D(30,25,26,29)       -150.0            estimate D2E/DX2                !
 ! D82   D(21,31,33,34)       -180.0            estimate D2E/DX2                !
 ! D83   D(21,31,33,35)        -60.0            estimate D2E/DX2                !
 ! D84   D(21,31,33,36)         60.0            estimate D2E/DX2                !
 ! D85   D(32,31,33,34)        -60.0            estimate D2E/DX2                !
 ! D86   D(32,31,33,35)         60.0            estimate D2E/DX2                !
 ! D87   D(32,31,33,36)        180.0            estimate D2E/DX2                !
 --------------------------------------------------------------------------------
 Trust Radius=3.00D-01 FncErr=1.00D-07 GrdErr=1.00D-06
 Number of steps in this run=    197 maximum allowed number of steps=    216.
 GradGradGradGradGradGradGradGradGradGradGradGradGradGradGradGradGradGrad

 Leave Link  103 at Mon Sep 30 20:04:27 2013, MaxMem= 17179869184 cpu:         0.6
 (Enter /system/software/linux-x86_64/gaussian/g09/D.01__pgi_12.10__atlas/l202.exe)
                          Input orientation:                          
 ---------------------------------------------------------------------
 Center     Atomic      Atomic             Coordinates (Angstroms)
 Number     Number       Type             X           Y           Z
 ---------------------------------------------------------------------
      1          6           0       -4.730247   -0.646912    1.254884
      2          6           0       -3.488454   -0.316962    1.580602
      3          6           0       -3.225054    0.772873    2.406393
      4          6           0       -4.278539    1.549139    2.796719
      5          6           0       -5.596276    1.239974    2.367084
      6          6           0       -5.825458    0.138485    1.596780
      7          6           0       -4.685831   -1.975878    0.517920
      8          6           0       -3.387151   -2.361860    0.498995
      9          1           0       -2.227292    0.999116    2.719738
     10          1           0       -4.109746    2.396963    3.427277
     11          1           0       -6.412107    1.871080    2.651733
     12          1           0       -6.813048   -0.116027    1.273067
     13          1           0       -3.039279   -3.330196    0.205379
     14          7           0       -2.516399   -1.243721    0.953717
     15          1           0       -1.791348   -1.535138    1.577717
     16          6           0       -5.884560   -2.744808   -0.068080
     17          1           0       -6.283077   -3.403907    0.674666
     18          1           0       -6.640114   -2.050366   -0.371048
     19          6           0       -5.422290   -3.564603   -1.287031
     20          1           0       -4.666736   -4.259045   -0.984063
     21          6           0       -6.621019   -4.333532   -1.873031
     22          8           0       -7.782357   -3.859304   -1.773178
     23          7           0       -4.874794   -2.659111   -2.307439
     24          1           0       -4.574619   -3.191445   -3.098965
     25          6           0       -5.912798   -1.705065   -2.723666
     26          6           0       -6.847080   -2.047875   -3.898909
     27          1           0       -7.794979   -1.574072   -3.750928
     28          1           0       -6.413093   -1.699651   -4.812854
     29          1           0       -6.982313   -3.108088   -3.949511
     30          8           0       -6.037943   -0.608225   -2.119637
     31          7           0       -6.408643   -5.621481   -2.549037
     32          1           0       -6.473466   -6.363079   -1.881332
     33          6           0       -7.433726   -5.805237   -3.586505
     34          1           0       -7.279139   -6.742724   -4.078564
     35          1           0       -8.403822   -5.795015   -3.135164
     36          1           0       -7.364365   -5.011727   -4.300949
 ---------------------------------------------------------------------
                    Distance matrix (angstroms):
                    1          2          3          4          5
     1  C    0.000000
     2  C    1.325522   0.000000
     3  C    2.367988   1.392498   0.000000
     4  C    2.721018   2.363368   1.365567   0.000000
     5  C    2.355279   2.735968   2.417110   1.420071   0.000000
     6  C    1.390406   2.381026   2.796430   2.413039   1.363514
     7  C    1.520276   2.305430   3.640856   4.217174   3.819689
     8  C    2.305715   2.315544   3.673009   4.622772   4.619870
     9  H    3.334665   2.149470   1.070000   2.125103   3.395943
    10  H    3.790711   3.340899   2.112475   1.070000   2.161574
    11  H    3.334686   3.805601   3.379875   2.162586   1.070000
    12  H    2.149472   3.344828   3.866299   3.393822   2.125122
    13  H    3.340785   3.342540   4.659845   5.662042   5.665480
    14  N    2.312575   1.482146   2.584397   3.781780   4.201427
    15  H    3.087117   2.089050   2.840622   4.145461   4.775125
    16  C    2.735660   3.788655   5.056685   5.405955   4.678848
    17  H    3.216980   4.261440   5.458560   5.749257   4.990151
    18  H    2.874183   4.092259   5.229482   5.344925   4.406053
    19  C    3.931052   4.744493   6.105974   6.643458   6.038774
    20  H    4.250225   4.848285   6.236492   6.941182   6.506415
    21  C    5.191343   6.154135   7.478063   7.867630   7.077616
    22  O    5.366935   6.498741   7.726247   7.900124   6.922670
    23  N    4.093895   4.745994   6.059733   6.642087   6.129809
    24  H    5.045282   5.598281   6.917089   7.570991   7.110482
    25  C    4.283336   5.131373   6.299337   6.613267   5.889751
    26  C    5.745021   6.655935   7.799521   8.022927   7.185898
    27  H    5.942252   6.967904   8.019037   8.061729   7.084012
    28  H    6.384174   7.165307   8.270096   8.544973   7.801288
    29  H    6.181821   7.111932   8.341245   8.632021   7.792696
    30  O    3.619248   4.502943   5.504972   5.649803   4.872532
    31  N    6.483299   7.329348   8.693635   9.194142   8.479844
    32  H    6.749017   7.579631   8.936363   9.450135   8.753566
    33  C    7.573385   8.507957   9.843743  10.236581   9.405129
    34  H    8.491256   9.364073  10.722615  11.181597  10.397205
    35  H    7.698743   8.741188  10.033227  10.302514   9.362058
    36  H    7.540389   8.464996   9.776704  10.146142   9.309811
                    6          7          8          9         10
     6  C    0.000000
     7  C    2.633101   0.000000
     8  C    3.660901   1.354957   0.000000
     9  H    3.866331   4.443310   4.192032   0.000000
    10  H    3.375664   5.283746   5.634126   2.449126   0.000000
    11  H    2.111627   4.725704   5.630491   4.275233   2.485737
    12  H    1.070000   2.924781   4.168899   4.936148   4.273591
    13  H    4.661603   2.154761   1.070000   5.071910   6.657843
    14  N    3.643335   2.330752   1.488361   2.869273   4.681007
    15  H    4.367542   3.113752   2.096115   2.813664   4.925166
    16  C    3.329959   1.540000   2.589454   5.929966   6.465701
    17  H    3.688937   2.148263   3.082712   6.326004   6.778667
    18  H    3.054027   2.148263   3.381681   6.190742   6.372501
    19  C    4.710814   2.514809   2.962814   6.862196   7.712830
    20  H    5.228925   2.732978   2.726923   6.878756   8.004536
    21  C    5.715894   3.875582   4.468993   8.296716   8.927448
    22  O    5.582866   4.287762   5.169424   8.639982   8.926011
    23  N    4.896246   2.912931   3.190221   6.757544   7.683498
    24  H    5.890931   3.817307   3.878609   7.545068   8.604549
    25  C    4.698144   3.476588   4.146783   7.108178   7.609975
    26  C    6.002207   4.917780   5.604575   8.627461   8.995699
    27  H    5.950617   5.296349   6.173443   8.915714   8.993147
    28  H    6.693838   5.610427   6.149031   9.030184   9.486170
    29  H    6.529923   5.149143   5.768123   9.162872   9.642315
    30  O    3.796641   3.264260   4.118151   6.365858   6.596768
    31  N    7.120753   5.066037   5.389345   9.438008  10.261418
    32  H    7.401859   5.310328   5.585790   9.664458  10.512223
    33  C    8.048652   6.249898   6.702456  10.638368  11.292390
    34  H    9.037353   7.111661   7.435965  11.474936  12.244042
    35  H    8.015341   6.461756   7.082419  10.889886  11.340777
    36  H    7.979733   6.293841   6.773440  10.574016  11.189581
                   11         12         13         14         15
    11  H    0.000000
    12  H    2.451544   0.000000
    13  H    6.664375   5.070717   0.000000
    14  N    5.268945   4.453635   2.277453   0.000000
    15  H    5.840141   5.227251   2.581255   1.000000   0.000000
    16  C    5.383503   3.093744   2.917719   3.826465   4.574531
    17  H    5.634797   3.383653   3.278398   4.351108   4.948074
    18  H    4.956504   2.544541   3.864744   4.405757   5.251064
    19  C    6.785297   4.514530   2.821520   4.341848   5.050668
    20  H    7.337831   5.183231   2.219493   4.179847   4.717016
    21  C    7.682080   5.265184   4.260908   5.863902   6.562347
    22  O    7.368495   4.922529   5.166376   6.481323   7.247237
    23  N    6.890526   4.800429   3.183351   4.266203   5.085803
    24  H    7.878836   5.795121   3.646260   4.945112   5.688700
    25  C    6.475572   4.394242   4.413328   5.027077   5.959624
    26  C    7.645804   5.521099   5.743595   6.553582   7.471062
    27  H    7.401045   5.322651   6.430631   7.078575   8.027425
    28  H    8.274671   6.301291   6.262904   6.974628   7.888409
    29  H    8.288165   6.021329   5.732361   6.889259   7.744065
    30  O    5.390076   3.514753   4.669777   4.717057   5.706414
    31  N    9.120663   6.714317   4.918273   6.825220   7.419415
    32  H    9.399671   7.006512   5.034519   7.064256   7.562821
    33  C    9.944102   7.507849   6.309943   8.099453   8.760101
    34  H   10.965685   8.530551   6.926321   8.845709   9.446074
    35  H    9.809390   7.363014   6.783280   8.490876   9.169658
    36  H    9.829528   7.439186   6.468455   8.081594   8.814982
                   16         17         18         19         20
    16  C    0.000000
    17  H    1.070000   0.000000
    18  H    1.070000   1.747303   0.000000
    19  C    1.540000   2.148263   2.148263   0.000000
    20  H    2.148263   2.468846   3.024610   1.070000   0.000000
    21  C    2.514809   2.732978   2.732978   1.540000   2.148263
    22  O    2.784079   2.906401   2.557918   2.427572   3.238764
    23  N    2.457987   3.380966   2.690081   1.470000   2.086720
    24  H    3.331921   4.147803   3.606919   2.034920   2.370879
    25  C    2.852017   3.817307   2.486571   2.400500   3.331921
    26  C    4.010912   4.803594   3.533928   3.339521   4.259049
    27  H    4.310881   5.021954   3.603354   3.957607   4.964929
    28  H    4.887186   5.747545   4.461411   4.109886   4.925434
    29  H    4.050005   4.686092   3.747169   3.119436   3.934524
    30  O    2.966041   3.960311   2.345196   3.132481   4.061800
    31  N    3.834718   3.914801   4.189282   2.606971   2.709173
    32  H    4.089814   3.914853   4.572551   3.047890   2.914846
    33  C    4.913803   5.024734   5.006799   3.788654   4.101176
    34  H    5.831995   5.893473   6.014337   4.619632   4.750710
    35  H    5.005742   4.972903   4.977289   4.156906   4.577363
    36  H    5.024533   5.339571   4.973764   3.866462   4.341137
                   21         22         23         24         25
    21  C    0.000000
    22  O    1.258400   0.000000
    23  N    2.457987   3.190583   0.000000
    24  H    2.644813   3.534591   1.000000   0.000000
    25  C    2.852017   3.006564   1.470000   2.034920   0.000000
    26  C    3.062600   2.945293   2.606971   2.666785   1.540000
    27  H    3.538262   3.022240   3.433431   3.662195   2.148263
    28  H    3.952610   3.972231   3.092577   2.922816   2.148263
    29  H    2.438036   2.437380   2.709173   2.554871   2.148263
    30  O    3.778718   3.705743   2.365231   3.126249   1.258400
    31  N    1.470000   2.365231   3.344652   3.093726   3.951541
    32  H    2.034920   2.827328   4.056686   3.891981   4.766652
    33  C    2.400500   2.682602   4.252323   3.904369   4.457480
    34  H    3.331921   3.725875   5.059017   4.570079   5.392647
    35  H    2.628174   2.447081   4.793023   4.630625   4.806478
    36  H    2.628174   2.809346   3.963187   3.541310   3.940671
                   26         27         28         29         30
    26  C    0.000000
    27  H    1.070000   0.000000
    28  H    1.070000   1.747303   0.000000
    29  H    1.070000   1.747303   1.747303   0.000000
    30  O    2.427572   2.584792   2.930080   3.238764   0.000000
    31  N    3.845132   4.443871   4.528315   2.933866   5.045250
    32  H    4.778200   5.308142   5.508632   3.889892   5.776229
    33  C    3.815694   4.249741   4.404709   2.758652   5.577531
    34  H    4.718109   5.204651   5.169313   3.649019   6.558204
    35  H    4.128900   4.308853   4.852799   3.146972   5.790637
    36  H    3.035398   3.507909   3.483793   1.973149   5.090025
                   31         32         33         34         35
    31  N    0.000000
    32  H    1.000000   0.000000
    33  C    1.470000   2.034920   0.000000
    34  H    2.086720   2.370879   1.070000   0.000000
    35  H    2.086720   2.370879   1.070000   1.747303   0.000000
    36  H    2.086720   2.911082   1.070000   1.747303   1.747303
                   36
    36  H    0.000000
 Stoichiometry    C14H17N3O2
 Framework group  C1[X(C14H17N3O2)]
 Deg. of freedom   102
 Full point group                 C1      NOp   1
 Largest Abelian subgroup         C1      NOp   1
 Largest concise Abelian subgroup C1      NOp   1
                         Standard orientation:                         
 ---------------------------------------------------------------------
 Center     Atomic      Atomic             Coordinates (Angstroms)
 Number     Number       Type             X           Y           Z
 ---------------------------------------------------------------------
      1          6           0       -2.340029   -0.046934   -0.361939
      2          6           0       -3.231757   -0.736326    0.335606
      3          6           0       -4.583646   -0.403803    0.306039
      4          6           0       -4.953037    0.711582   -0.389836
      5          6           0       -3.976957    1.496314   -1.059211
      6          6           0       -2.667398    1.116684   -1.049001
      7          6           0       -1.007990   -0.774060   -0.271391
      8          6           0       -1.229409   -1.892479    0.460744
      9          1           0       -5.309655   -0.999847    0.818427
     10          1           0       -5.983372    0.997639   -0.428318
     11          1           0       -4.270514    2.385970   -1.576160
     12          1           0       -1.920034    1.689591   -1.557061
     13          1           0       -0.538867   -2.702926    0.566697
     14          7           0       -2.576981   -1.831502    1.089671
     15          1           0       -3.076204   -2.696595    1.040783
     16          6           0        0.324454   -0.338603   -0.909020
     17          1           0        0.400004   -0.750324   -1.893742
     18          1           0        0.360802    0.729304   -0.965178
     19          6           0        1.495849   -0.847564   -0.048559
     20          1           0        1.459501   -1.915471    0.007599
     21          6           0        2.828293   -0.412107   -0.686188
     22          8           0        2.887731    0.652431   -1.354616
     23          7           0        1.392056   -0.281929    1.304284
     24          1           0        2.152702   -0.612423    1.863025
     25          6           0        1.441992    1.185195    1.227132
     26          6           0        2.796010    1.914708    1.304894
     27          1           0        2.744217    2.823680    0.742768
     28          1           0        3.021937    2.139416    2.326346
     29          1           0        3.562654    1.287896    0.899599
     30          8           0        0.378313    1.845018    1.097544
     31          7           0        4.030738   -1.239984   -0.514008
     32          1           0        4.085601   -1.906752   -1.257252
     33          6           0        5.223937   -0.381692   -0.536637
     34          1           0        6.099186   -0.984297   -0.411310
     35          1           0        5.275910    0.132214   -1.473707
     36          1           0        5.165233    0.331749    0.258633
 ---------------------------------------------------------------------
 Rotational constants (GHZ):      0.8803837      0.1981261      0.1871715
 Leave Link  202 at Mon Sep 30 20:04:27 2013, MaxMem= 17179869184 cpu:         0.7
 (Enter /system/software/linux-x86_64/gaussian/g09/D.01__pgi_12.10__atlas/l301.exe)
 Standard basis: CC-pVTZ (5D, 7F)
 Ernie: Thresh=  0.10000D-02 Tol=  0.10000D-05 Strict=F.
 Ernie:  57 primitive shells out of 630 were deleted.
 There are   920 symmetry adapted cartesian basis functions of A   symmetry.
 There are   808 symmetry adapted basis functions of A   symmetry.
   808 basis functions,  1277 primitive gaussians,   920 cartesian basis functions
    69 alpha electrons       69 beta electrons
       nuclear repulsion energy      1422.6743627091 Hartrees.
 IExCor= 4235 DFT=T Ex+Corr=M06 ExCW=0 ScaHFX=  0.270000
 ScaDFX=  1.000000  1.000000  1.000000  1.000000 ScalE2=  1.000000  1.000000
 IRadAn=      5 IRanWt=     -1 IRanGd=            0 ICorTp=0 IEmpDi=  4
 NAtoms=   36 NActive=   36 NUniq=   36 SFac= 1.00D+00 NAtFMM=   60 NAOKFM=F Big=F
 Integral buffers will be    131072 words long.
 Raffenetti 2 integral format.
 Two-electron integral symmetry is turned on.
 Leave Link  301 at Mon Sep 30 20:04:28 2013, MaxMem= 17179869184 cpu:         2.8
 (Enter /system/software/linux-x86_64/gaussian/g09/D.01__pgi_12.10__atlas/l302.exe)
 NPDir=0 NMtPBC=     1 NCelOv=     1 NCel=       1 NClECP=     1 NCelD=      1
         NCelK=      1 NCelE2=     1 NClLst=     1 CellRange=     0.0.
 One-electron integrals computed using PRISM.
 NBasis=   808 RedAO= T EigKep=  2.77D-05  NBF=   808
 NBsUse=   808 1.00D-06 EigRej= -1.00D+00 NBFU=   808
 Precomputing XC quadrature grid using
 IXCGrd= 4 IRadAn=           5 IRanWt=          -1 IRanGd=           0 AccXCQ= 0.00D+00.
 Generated NRdTot=       0 NPtTot=           0 NUsed=           0 NTot=          32
 NSgBfM=   910   910   910   910   910 MxSgAt=    36 MxSgA2=    36.
 Leave Link  302 at Mon Sep 30 20:04:31 2013, MaxMem= 17179869184 cpu:        79.7
 (Enter /system/software/linux-x86_64/gaussian/g09/D.01__pgi_12.10__atlas/l303.exe)
 DipDrv:  MaxL=1.
 Leave Link  303 at Mon Sep 30 20:04:32 2013, MaxMem= 17179869184 cpu:         7.3
 (Enter /system/software/linux-x86_64/gaussian/g09/D.01__pgi_12.10__atlas/l401.exe)
 ExpMin= 1.03D-01 ExpMax= 1.53D+04 ExpMxC= 5.22D+02 IAcc=3 IRadAn=         5 AccDes= 0.00D+00
 Harris functional with IExCor= 1009 and IRadAn=       5 diagonalized for initial guess.
 HarFok:  IExCor= 1009 AccDes= 0.00D+00 IRadAn=         5 IDoV= 1 UseB2=F ITyADJ=14
 ICtDFT=  3500011 ScaDFX=  1.000000  1.000000  1.000000  1.000000
 FoFCou: FMM=F IPFlag=           0 FMFlag=      100000 FMFlg1=           0
         NFxFlg=           0 DoJE=T BraDBF=F KetDBF=T FulRan=T
         wScrn=  0.000000 ICntrl=     500 IOpCl=  0 I1Cent=   200000004 NGrid=           0
         NMat0=    1 NMatS0=      1 NMatT0=    0 NMatD0=    1 NMtDS0=    0 NMtDT0=    0
 Petite list used in FoFCou.
 Harris En= -857.949688138677    
 JPrj=0 DoOrth=F DoCkMO=F.
 Leave Link  401 at Mon Sep 30 20:04:41 2013, MaxMem= 17179869184 cpu:       206.1
 (Enter /system/software/linux-x86_64/gaussian/g09/D.01__pgi_12.10__atlas/l502.exe)
 Closed shell SCF:
 Using DIIS extrapolation, IDIIS=  1040.
 Integral symmetry usage will be decided dynamically.
 IVT=     2586522 IEndB=     2586522 NGot= 17179869184 MDV= 17178146623
 LenX= 17178146623 LenY= 17177299303
 Requested convergence on RMS density matrix=1.00D-08 within 128 cycles.
 Requested convergence on MAX density matrix=1.00D-06.
 Requested convergence on             energy=1.00D-06.
 No special actions if energy rises.
 Fock matrices will be formed incrementally for  20 cycles.
 Integral accuracy reduced to 1.0D-05 until final iterations.

 Cycle   1  Pass 0  IDiag  1:
 FoFJK:  IHMeth= 1 ICntrl=       0 DoSepK=F KAlg= 0 I1Cent=   0 FoldK=F
 IRaf= 750000000 NMat=   1 IRICut=       1 DoRegI=T DoRafI=F ISym2E= 0.
 FoFCou: FMM=F IPFlag=           0 FMFlag=      100000 FMFlg1=           0
         NFxFlg=           0 DoJE=F BraDBF=F KetDBF=F FulRan=T
         wScrn=  0.000000 ICntrl=       0 IOpCl=  0 I1Cent=           0 NGrid=           0
         NMat0=    1 NMatS0=      1 NMatT0=    0 NMatD0=    1 NMtDS0=    0 NMtDT0=    0
 Symmetry not used in FoFCou.
 E= -857.586741259772    
 DIIS: error= 1.38D-02 at cycle   1 NSaved=   1.
 NSaved= 1 IEnMin= 1 EnMin= -857.586741259772     IErMin= 1 ErrMin= 1.38D-02
 ErrMax= 1.38D-02  0.00D+00 EMaxC= 1.00D-01 BMatC= 5.26D-01 BMatP= 5.26D-01
 IDIUse=3 WtCom= 8.62D-01 WtEn= 1.38D-01
 Coeff-Com:  0.100D+01
 Coeff-En:   0.100D+01
 Coeff:      0.100D+01
 Gap=     0.266 Goal=   None    Shift=    0.000
 GapD=    0.266 DampG=1.000 DampE=0.500 DampFc=0.5000 IDamp=-1.
 Damping current iteration by 5.00D-01
 RMSDP=2.44D-03 MaxDP=2.18D-01              OVMax= 2.09D-01

 Cycle   2  Pass 0  IDiag  1:
 RMSU=  1.22D-03    CP:  1.00D+00
 E= -857.723651590695     Delta-E=       -0.136910330923 Rises=F Damp=T
 DIIS: error= 6.68D-03 at cycle   2 NSaved=   2.
 NSaved= 2 IEnMin= 2 EnMin= -857.723651590695     IErMin= 2 ErrMin= 6.68D-03
 ErrMax= 6.68D-03  0.00D+00 EMaxC= 1.00D-01 BMatC= 8.16D-02 BMatP= 5.26D-01
 IDIUse=3 WtCom= 9.33D-01 WtEn= 6.68D-02
 Coeff-Com:  0.206D+00 0.794D+00
 Coeff-En:   0.321D+00 0.679D+00
 Coeff:      0.214D+00 0.786D+00
 Gap=     0.167 Goal=   None    Shift=    0.000
 RMSDP=7.77D-04 MaxDP=4.45D-02 DE=-1.37D-01 OVMax= 2.14D-01

 Cycle   3  Pass 0  IDiag  1:
 RMSU=  7.19D-04    CP:  1.00D+00  7.60D-01
 E= -857.976528950681     Delta-E=       -0.252877359986 Rises=F Damp=F
 DIIS: error= 8.49D-03 at cycle   3 NSaved=   3.
 NSaved= 3 IEnMin= 3 EnMin= -857.976528950681     IErMin= 2 ErrMin= 6.68D-03
 ErrMax= 8.49D-03  0.00D+00 EMaxC= 1.00D-01 BMatC= 9.78D-02 BMatP= 8.16D-02
 IDIUse=3 WtCom= 9.79D-02 WtEn= 9.02D-01
 Coeff-Com:  0.509D-01 0.516D+00 0.433D+00
 Coeff-En:   0.000D+00 0.000D+00 0.100D+01
 Coeff:      0.499D-02 0.506D-01 0.944D+00
 Gap=     0.167 Goal=   None    Shift=    0.000
 RMSDP=8.30D-04 MaxDP=6.33D-02 DE=-2.53D-01 OVMax= 2.23D-01

 Cycle   4  Pass 0  IDiag  1:
 RMSU=  6.74D-04    CP:  1.00D+00  9.43D-01  4.03D-01
 E= -857.699169698322     Delta-E=        0.277359252359 Rises=F Damp=F
 DIIS: error= 2.01D-02 at cycle   4 NSaved=   4.
 NSaved= 4 IEnMin= 3 EnMin= -857.976528950681     IErMin= 2 ErrMin= 6.68D-03
 ErrMax= 2.01D-02  0.00D+00 EMaxC= 1.00D-01 BMatC= 4.61D-01 BMatP= 8.16D-02
 IDIUse=2 WtCom= 0.00D+00 WtEn= 1.00D+00
 Coeff-En:   0.000D+00 0.000D+00 0.762D+00 0.238D+00
 Coeff:      0.000D+00 0.000D+00 0.762D+00 0.238D+00
 Gap=     0.206 Goal=   None    Shift=    0.000
 RMSDP=4.43D-04 MaxDP=3.47D-02 DE= 2.77D-01 OVMax= 8.62D-02

 Cycle   5  Pass 0  IDiag  1:
 RMSU=  9.07D-05    CP:  1.00D+00  7.79D-01  7.17D-01  5.39D-01
 E= -858.034261932022     Delta-E=       -0.335092233700 Rises=F Damp=F
 DIIS: error= 4.42D-03 at cycle   5 NSaved=   5.
 NSaved= 5 IEnMin= 5 EnMin= -858.034261932022     IErMin= 5 ErrMin= 4.42D-03
 ErrMax= 4.42D-03  0.00D+00 EMaxC= 1.00D-01 BMatC= 2.66D-02 BMatP= 8.16D-02
 IDIUse=3 WtCom= 9.56D-01 WtEn= 4.42D-02
 Coeff-Com: -0.604D-02 0.340D-01 0.294D+00-0.540D-01 0.732D+00
 Coeff-En:   0.000D+00 0.000D+00 0.261D+00 0.000D+00 0.739D+00
 Coeff:     -0.577D-02 0.325D-01 0.293D+00-0.516D-01 0.732D+00
 Gap=     0.169 Goal=   None    Shift=    0.000
 RMSDP=1.44D-04 MaxDP=9.61D-03 DE=-3.35D-01 OVMax= 2.90D-02

 Cycle   6  Pass 0  IDiag  1:
 RMSU=  3.25D-05    CP:  1.00D+00  7.75D-01  8.30D-01  3.71D-01  8.44D-01
 E= -858.055174301879     Delta-E=       -0.020912369857 Rises=F Damp=F
 DIIS: error= 3.59D-04 at cycle   6 NSaved=   6.
 NSaved= 6 IEnMin= 6 EnMin= -858.055174301879     IErMin= 6 ErrMin= 3.59D-04
 ErrMax= 3.59D-04  0.00D+00 EMaxC= 1.00D-01 BMatC= 2.46D-04 BMatP= 2.66D-02
 IDIUse=3 WtCom= 9.96D-01 WtEn= 3.59D-03
 Coeff-Com: -0.816D-02 0.228D-01 0.126D+00-0.588D-01 0.449D+00 0.469D+00
 Coeff-En:   0.000D+00 0.000D+00 0.000D+00 0.000D+00 0.000D+00 0.100D+01
 Coeff:     -0.814D-02 0.227D-01 0.126D+00-0.586D-01 0.448D+00 0.470D+00
 Gap=     0.169 Goal=   None    Shift=    0.000
 RMSDP=1.95D-05 MaxDP=1.31D-03 DE=-2.09D-02 OVMax= 7.80D-03

 Cycle   7  Pass 0  IDiag  1:
 RMSU=  1.18D-05    CP:  1.00D+00  7.80D-01  8.24D-01  3.74D-01  9.28D-01
                    CP:  6.58D-01
 E= -858.055397100554     Delta-E=       -0.000222798675 Rises=F Damp=F
 DIIS: error= 1.33D-04 at cycle   7 NSaved=   7.
 NSaved= 7 IEnMin= 7 EnMin= -858.055397100554     IErMin= 7 ErrMin= 1.33D-04
 ErrMax= 1.33D-04  0.00D+00 EMaxC= 1.00D-01 BMatC= 1.70D-05 BMatP= 2.46D-04
 IDIUse=3 WtCom= 9.99D-01 WtEn= 1.33D-03
 Coeff-Com: -0.287D-02 0.580D-02 0.300D-01-0.207D-01 0.130D+00 0.240D+00
 Coeff-Com:  0.617D+00
 Coeff-En:   0.000D+00 0.000D+00 0.000D+00 0.000D+00 0.000D+00 0.139D-01
 Coeff-En:   0.986D+00
 Coeff:     -0.287D-02 0.580D-02 0.299D-01-0.207D-01 0.130D+00 0.240D+00
 Coeff:      0.618D+00
 Gap=     0.169 Goal=   None    Shift=    0.000
 RMSDP=6.54D-06 MaxDP=3.47D-04 DE=-2.23D-04 OVMax= 1.76D-03

 Initial convergence to 1.0D-05 achieved.  Increase integral accuracy.
 Cycle   8  Pass 1  IDiag  1:
 E= -858.055403526325     Delta-E=       -0.000006425772 Rises=F Damp=F
 DIIS: error= 2.68D-04 at cycle   1 NSaved=   1.
 NSaved= 1 IEnMin= 1 EnMin= -858.055403526325     IErMin= 1 ErrMin= 2.68D-04
 ErrMax= 2.68D-04  0.00D+00 EMaxC= 1.00D-01 BMatC= 3.45D-05 BMatP= 3.45D-05
 IDIUse=3 WtCom= 9.97D-01 WtEn= 2.68D-03
 Coeff-Com:  0.100D+01
 Coeff-En:   0.100D+01
 Coeff:      0.100D+01
 Gap=     0.170 Goal=   None    Shift=    0.000
 RMSDP=6.54D-06 MaxDP=3.47D-04 DE=-6.43D-06 OVMax= 1.03D-03

 Cycle   9  Pass 1  IDiag  1:
 RMSU=  3.44D-04    CP:  9.97D-01
 E= -858.055422685519     Delta-E=       -0.000019159194 Rises=F Damp=F
 DIIS: error= 7.10D-05 at cycle   2 NSaved=   2.
 NSaved= 2 IEnMin= 2 EnMin= -858.055422685519     IErMin= 2 ErrMin= 7.10D-05
 ErrMax= 7.10D-05  0.00D+00 EMaxC= 1.00D-01 BMatC= 8.12D-06 BMatP= 3.45D-05
 IDIUse=1 WtCom= 1.00D+00 WtEn= 0.00D+00
 Coeff-Com:  0.245D+00 0.755D+00
 Coeff:      0.245D+00 0.755D+00
 Gap=     0.169 Goal=   None    Shift=    0.000
 RMSDP=7.03D-06 MaxDP=2.65D-04 DE=-1.92D-05 OVMax= 1.39D-03

 Cycle  10  Pass 1  IDiag  1:
 RMSU=  5.74D-06    CP:  9.97D-01  1.01D+00
 E= -858.055421607478     Delta-E=        0.000001078041 Rises=F Damp=F
 DIIS: error= 8.41D-05 at cycle   3 NSaved=   3.
 NSaved= 3 IEnMin= 2 EnMin= -858.055422685519     IErMin= 2 ErrMin= 7.10D-05
 ErrMax= 8.41D-05  0.00D+00 EMaxC= 1.00D-01 BMatC= 9.14D-06 BMatP= 8.12D-06
 IDIUse=1 WtCom= 1.00D+00 WtEn= 0.00D+00
 Coeff-Com:  0.628D-03 0.515D+00 0.485D+00
 Coeff:      0.628D-03 0.515D+00 0.485D+00
 Gap=     0.169 Goal=   None    Shift=    0.000
 RMSDP=3.70D-06 MaxDP=1.53D-04 DE= 1.08D-06 OVMax= 8.76D-04

 Cycle  11  Pass 1  IDiag  1:
 RMSU=  2.03D-06    CP:  9.97D-01  1.02D+00  5.57D-01
 E= -858.055429927430     Delta-E=       -0.000008319952 Rises=F Damp=F
 DIIS: error= 1.09D-05 at cycle   4 NSaved=   4.
 NSaved= 4 IEnMin= 4 EnMin= -858.055429927430     IErMin= 4 ErrMin= 1.09D-05
 ErrMax= 1.09D-05  0.00D+00 EMaxC= 1.00D-01 BMatC= 2.70D-07 BMatP= 8.12D-06
 IDIUse=1 WtCom= 1.00D+00 WtEn= 0.00D+00
 Coeff-Com: -0.439D-02 0.312D+00 0.308D+00 0.384D+00
 Coeff:     -0.439D-02 0.312D+00 0.308D+00 0.384D+00
 Gap=     0.169 Goal=   None    Shift=    0.000
 RMSDP=5.16D-07 MaxDP=2.50D-05 DE=-8.32D-06 OVMax= 1.52D-04

 Cycle  12  Pass 1  IDiag  1:
 RMSU=  4.74D-07    CP:  9.97D-01  1.02D+00  5.74D-01  9.15D-01
 E= -858.055430170696     Delta-E=       -0.000000243265 Rises=F Damp=F
 DIIS: error= 1.41D-06 at cycle   5 NSaved=   5.
 NSaved= 5 IEnMin= 5 EnMin= -858.055430170696     IErMin= 5 ErrMin= 1.41D-06
 ErrMax= 1.41D-06  0.00D+00 EMaxC= 1.00D-01 BMatC= 3.56D-09 BMatP= 2.70D-07
 IDIUse=1 WtCom= 1.00D+00 WtEn= 0.00D+00
 Coeff-Com: -0.180D-02 0.100D+00 0.101D+00 0.157D+00 0.643D+00
 Coeff:     -0.180D-02 0.100D+00 0.101D+00 0.157D+00 0.643D+00
 Gap=     0.169 Goal=   None    Shift=    0.000
 RMSDP=1.32D-07 MaxDP=1.08D-05 DE=-2.43D-07 OVMax= 1.58D-05

 Cycle  13  Pass 1  IDiag  1:
 RMSU=  9.79D-08    CP:  9.97D-01  1.02D+00  5.77D-01  9.55D-01  9.92D-01
 E= -858.055430172796     Delta-E=       -0.000000002100 Rises=F Damp=F
 DIIS: error= 6.82D-07 at cycle   6 NSaved=   6.
 NSaved= 6 IEnMin= 6 EnMin= -858.055430172796     IErMin= 6 ErrMin= 6.82D-07
 ErrMax= 6.82D-07  0.00D+00 EMaxC= 1.00D-01 BMatC= 1.12D-09 BMatP= 3.56D-09
 IDIUse=1 WtCom= 1.00D+00 WtEn= 0.00D+00
 Coeff-Com: -0.183D-03-0.370D-02-0.186D-02 0.134D-01 0.373D+00 0.619D+00
 Coeff:     -0.183D-03-0.370D-02-0.186D-02 0.134D-01 0.373D+00 0.619D+00
 Gap=     0.169 Goal=   None    Shift=    0.000
 RMSDP=7.82D-08 MaxDP=7.13D-06 DE=-2.10D-09 OVMax= 8.19D-06

 Cycle  14  Pass 1  IDiag  1:
 RMSU=  5.55D-08    CP:  9.97D-01  1.02D+00  5.78D-01  9.79D-01  1.03D+00
                    CP:  1.05D+00
 E= -858.055430173603     Delta-E=       -0.000000000808 Rises=F Damp=F
 DIIS: error= 3.84D-07 at cycle   7 NSaved=   7.
 NSaved= 7 IEnMin= 7 EnMin= -858.055430173603     IErMin= 7 ErrMin= 3.84D-07
 ErrMax= 3.84D-07  0.00D+00 EMaxC= 1.00D-01 BMatC= 2.53D-10 BMatP= 1.12D-09
 IDIUse=1 WtCom= 1.00D+00 WtEn= 0.00D+00
 Coeff-Com:  0.766D-04-0.131D-01-0.120D-01-0.790D-02 0.182D+00 0.409D+00
 Coeff-Com:  0.441D+00
 Coeff:      0.766D-04-0.131D-01-0.120D-01-0.790D-02 0.182D+00 0.409D+00
 Coeff:      0.441D+00
 Gap=     0.169 Goal=   None    Shift=    0.000
 RMSDP=2.03D-08 MaxDP=1.03D-06 DE=-8.08D-10 OVMax= 3.50D-06

 Cycle  15  Pass 1  IDiag  1:
 RMSU=  1.58D-08    CP:  9.97D-01  1.02D+00  5.78D-01  9.81D-01  1.04D+00
                    CP:  1.14D+00  9.53D-01
 E= -858.055430173828     Delta-E=       -0.000000000225 Rises=F Damp=F
 DIIS: error= 7.85D-08 at cycle   8 NSaved=   8.
 NSaved= 8 IEnMin= 8 EnMin= -858.055430173828     IErMin= 8 ErrMin= 7.85D-08
 ErrMax= 7.85D-08  0.00D+00 EMaxC= 1.00D-01 BMatC= 1.45D-11 BMatP= 2.53D-10
 IDIUse=1 WtCom= 1.00D+00 WtEn= 0.00D+00
 Coeff-Com:  0.668D-04-0.570D-02-0.543D-02-0.651D-02 0.237D-01 0.901D-01
 Coeff-Com:  0.220D+00 0.684D+00
 Coeff:      0.668D-04-0.570D-02-0.543D-02-0.651D-02 0.237D-01 0.901D-01
 Coeff:      0.220D+00 0.684D+00
 Gap=     0.169 Goal=   None    Shift=    0.000
 RMSDP=8.31D-09 MaxDP=6.78D-07 DE=-2.25D-10 OVMax= 1.56D-06

 SCF Done:  E(RM06) =  -858.055430174     A.U. after   15 cycles
            NFock= 15  Conv=0.83D-08     -V/T= 2.0078
 KE= 8.514220378006D+02 PE=-4.843880932472D+03 EE= 1.711729101789D+03
 Leave Link  502 at Mon Sep 30 20:17:59 2013, MaxMem= 17179869184 cpu:     19033.6
 (Enter /system/software/linux-x86_64/gaussian/g09/D.01__pgi_12.10__atlas/l601.exe)
 Copying SCF densities to generalized density rwf, IOpCl= 0 IROHF=0.

 **********************************************************************

            Population analysis using the SCF density.

 **********************************************************************

 Orbital symmetries:
       Occupied  (A) (A) (A) (A) (A) (A) (A) (A) (A) (A) (A) (A)
                 (A) (A) (A) (A) (A) (A) (A) (A) (A) (A) (A) (A)
                 (A) (A) (A) (A) (A) (A) (A) (A) (A) (A) (A) (A)
                 (A) (A) (A) (A) (A) (A) (A) (A) (A) (A) (A) (A)
                 (A) (A) (A) (A) (A) (A) (A) (A) (A) (A) (A) (A)
                 (A) (A) (A) (A) (A) (A) (A) (A) (A)
       Virtual   (A) (A) (A) (A) (A) (A) (A) (A) (A) (A) (A) (A)
                 (A) (A) (A) (A) (A) (A) (A) (A) (A) (A) (A) (A)
                 (A) (A) (A) (A) (A) (A) (A) (A) (A) (A) (A) (A)
                 (A) (A) (A) (A) (A) (A) (A) (A) (A) (A) (A) (A)
                 (A) (A) (A) (A) (A) (A) (A) (A) (A) (A) (A) (A)
                 (A) (A) (A) (A) (A) (A) (A) (A) (A) (A) (A) (A)
                 (A) (A) (A) (A) (A) (A) (A) (A) (A) (A) (A) (A)
                 (A) (A) (A) (A) (A) (A) (A) (A) (A) (A) (A) (A)
                 (A) (A) (A) (A) (A) (A) (A) (A) (A) (A) (A) (A)
                 (A) (A) (A) (A) (A) (A) (A) (A) (A) (A) (A) (A)
                 (A) (A) (A) (A) (A) (A) (A) (A) (A) (A) (A) (A)
                 (A) (A) (A) (A) (A) (A) (A) (A) (A) (A) (A) (A)
                 (A) (A) (A) (A) (A) (A) (A) (A) (A) (A) (A) (A)
                 (A) (A) (A) (A) (A) (A) (A) (A) (A) (A) (A) (A)
                 (A) (A) (A) (A) (A) (A) (A) (A) (A) (A) (A) (A)
                 (A) (A) (A) (A) (A) (A) (A) (A) (A) (A) (A) (A)
                 (A) (A) (A) (A) (A) (A) (A) (A) (A) (A) (A) (A)
                 (A) (A) (A) (A) (A) (A) (A) (A) (A) (A) (A) (A)
                 (A) (A) (A) (A) (A) (A) (A) (A) (A) (A) (A) (A)
                 (A) (A) (A) (A) (A) (A) (A) (A) (A) (A) (A) (A)
                 (A) (A) (A) (A) (A) (A) (A) (A) (A) (A) (A) (A)
                 (A) (A) (A) (A) (A) (A) (A) (A) (A) (A) (A) (A)
                 (A) (A) (A) (A) (A) (A) (A) (A) (A) (A) (A) (A)
                 (A) (A) (A) (A) (A) (A) (A) (A) (A) (A) (A) (A)
                 (A) (A) (A) (A) (A) (A) (A) (A) (A) (A) (A) (A)
                 (A) (A) (A) (A) (A) (A) (A) (A) (A) (A) (A) (A)
                 (A) (A) (A) (A) (A) (A) (A) (A) (A) (A) (A) (A)
                 (A) (A) (A) (A) (A) (A) (A) (A) (A) (A) (A) (A)
                 (A) (A) (A) (A) (A) (A) (A) (A) (A) (A) (A) (A)
                 (A) (A) (A) (A) (A) (A) (A) (A) (A) (A) (A) (A)
                 (A) (A) (A) (A) (A) (A) (A) (A) (A) (A) (A) (A)
                 (A) (A) (A) (A) (A) (A) (A) (A) (A) (A) (A) (A)
                 (A) (A) (A) (A) (A) (A) (A) (A) (A) (A) (A) (A)
                 (A) (A) (A) (A) (A) (A) (A) (A) (A) (A) (A) (A)
                 (A) (A) (A) (A) (A) (A) (A) (A) (A) (A) (A) (A)
                 (A) (A) (A) (A) (A) (A) (A) (A) (A) (A) (A) (A)
                 (A) (A) (A) (A) (A) (A) (A) (A) (A) (A) (A) (A)
                 (A) (A) (A) (A) (A) (A) (A) (A) (A) (A) (A) (A)
                 (A) (A) (A) (A) (A) (A) (A) (A) (A) (A) (A) (A)
                 (A) (A) (A) (A) (A) (A) (A) (A) (A) (A) (A) (A)
                 (A) (A) (A) (A) (A) (A) (A) (A) (A) (A) (A) (A)
                 (A) (A) (A) (A) (A) (A) (A) (A) (A) (A) (A) (A)
                 (A) (A) (A) (A) (A) (A) (A) (A) (A) (A) (A) (A)
                 (A) (A) (A) (A) (A) (A) (A) (A) (A) (A) (A) (A)
                 (A) (A) (A) (A) (A) (A) (A) (A) (A) (A) (A) (A)
                 (A) (A) (A) (A) (A) (A) (A) (A) (A) (A) (A) (A)
                 (A) (A) (A) (A) (A) (A) (A) (A) (A) (A) (A) (A)
                 (A) (A) (A) (A) (A) (A) (A) (A) (A) (A) (A) (A)
                 (A) (A) (A) (A) (A) (A) (A) (A) (A) (A) (A) (A)
                 (A) (A) (A) (A) (A) (A) (A) (A) (A) (A) (A) (A)
                 (A) (A) (A) (A) (A) (A) (A) (A) (A) (A) (A) (A)
                 (A) (A) (A) (A) (A) (A) (A) (A) (A) (A) (A) (A)
                 (A) (A) (A) (A) (A) (A) (A) (A) (A) (A) (A) (A)
                 (A) (A) (A) (A) (A) (A) (A) (A) (A) (A) (A) (A)
                 (A) (A) (A) (A) (A) (A) (A) (A) (A) (A) (A) (A)
                 (A) (A) (A) (A) (A) (A) (A) (A) (A) (A) (A) (A)
                 (A) (A) (A) (A) (A) (A) (A) (A) (A) (A) (A) (A)
                 (A) (A) (A) (A) (A) (A) (A) (A) (A) (A) (A) (A)
                 (A) (A) (A) (A) (A) (A) (A) (A) (A) (A) (A) (A)
                 (A) (A) (A) (A) (A) (A) (A) (A) (A) (A) (A) (A)
                 (A) (A) (A) (A) (A) (A) (A) (A) (A) (A) (A) (A)
                 (A) (A) (A) (A) (A) (A) (A)
 The electronic state is 1-A.
 Alpha  occ. eigenvalues --  -19.22497 -19.20788 -14.42041 -14.41663 -14.41238
 Alpha  occ. eigenvalues --  -10.37643 -10.36943 -10.30791 -10.26891 -10.26052
 Alpha  occ. eigenvalues --  -10.25858 -10.24702 -10.24617 -10.24079 -10.23028
 Alpha  occ. eigenvalues --  -10.22848 -10.22762 -10.22571 -10.22426  -1.07233
 Alpha  occ. eigenvalues --   -1.04873  -0.94751  -0.94301  -0.93436  -0.85077
 Alpha  occ. eigenvalues --   -0.80867  -0.77065  -0.75201  -0.73972  -0.72759
 Alpha  occ. eigenvalues --   -0.70728  -0.66730  -0.61680  -0.60060  -0.59099
 Alpha  occ. eigenvalues --   -0.58159  -0.55444  -0.54366  -0.52744  -0.51134
 Alpha  occ. eigenvalues --   -0.49826  -0.48354  -0.47864  -0.47850  -0.46468
 Alpha  occ. eigenvalues --   -0.45741  -0.44737  -0.44204  -0.43858  -0.43232
 Alpha  occ. eigenvalues --   -0.42402  -0.42265  -0.41965  -0.40363  -0.40202
 Alpha  occ. eigenvalues --   -0.38950  -0.37819  -0.37460  -0.36307  -0.35239
 Alpha  occ. eigenvalues --   -0.33630  -0.33441  -0.32271  -0.28847  -0.28036
 Alpha  occ. eigenvalues --   -0.27652  -0.26778  -0.23637  -0.21755
 Alpha virt. eigenvalues --   -0.04809  -0.02241  -0.00262   0.01532   0.02059
 Alpha virt. eigenvalues --    0.03698   0.04314   0.05077   0.05448   0.05999
 Alpha virt. eigenvalues --    0.06584   0.07131   0.08222   0.08704   0.09242
 Alpha virt. eigenvalues --    0.10238   0.10419   0.10611   0.11201   0.13286
 Alpha virt. eigenvalues --    0.13986   0.14928   0.15642   0.16963   0.17656
 Alpha virt. eigenvalues --    0.18711   0.18815   0.19325   0.20272   0.20901
 Alpha virt. eigenvalues --    0.21089   0.22299   0.23653   0.24303   0.25140
 Alpha virt. eigenvalues --    0.25450   0.26076   0.26720   0.26798   0.27490
 Alpha virt. eigenvalues --    0.27852   0.28499   0.29280   0.29625   0.30457
 Alpha virt. eigenvalues --    0.31151   0.31556   0.32163   0.33102   0.33759
 Alpha virt. eigenvalues --    0.34056   0.34562   0.34641   0.35119   0.36048
 Alpha virt. eigenvalues --    0.36562   0.36901   0.37223   0.37574   0.38447
 Alpha virt. eigenvalues --    0.38635   0.39273   0.39321   0.39912   0.40237
 Alpha virt. eigenvalues --    0.40306   0.40521   0.40942   0.41253   0.41564
 Alpha virt. eigenvalues --    0.42297   0.42619   0.42992   0.43100   0.43911
 Alpha virt. eigenvalues --    0.44013   0.44736   0.44976   0.45330   0.45679
 Alpha virt. eigenvalues --    0.45974   0.46228   0.46402   0.47213   0.47716
 Alpha virt. eigenvalues --    0.48182   0.49318   0.49591   0.50068   0.50502
 Alpha virt. eigenvalues --    0.51390   0.51671   0.52693   0.54318   0.54480
 Alpha virt. eigenvalues --    0.55148   0.55226   0.56179   0.56957   0.57516
 Alpha virt. eigenvalues --    0.57590   0.58380   0.58912   0.59471   0.61161
 Alpha virt. eigenvalues --    0.61299   0.62117   0.63655   0.63981   0.64631
 Alpha virt. eigenvalues --    0.65424   0.66565   0.67050   0.67791   0.68943
 Alpha virt. eigenvalues --    0.69285   0.70168   0.70991   0.71838   0.72346
 Alpha virt. eigenvalues --    0.74299   0.74591   0.75197   0.76138   0.77313
 Alpha virt. eigenvalues --    0.77659   0.77760   0.78730   0.79203   0.79980
 Alpha virt. eigenvalues --    0.80200   0.80589   0.80747   0.82542   0.83111
 Alpha virt. eigenvalues --    0.83713   0.84092   0.85064   0.85647   0.86107
 Alpha virt. eigenvalues --    0.86567   0.87267   0.88538   0.89154   0.89518
 Alpha virt. eigenvalues --    0.90152   0.91207   0.92160   0.92380   0.93485
 Alpha virt. eigenvalues --    0.93783   0.94006   0.94595   0.95869   0.96348
 Alpha virt. eigenvalues --    0.97206   0.98680   0.98983   0.99665   1.00168
 Alpha virt. eigenvalues --    1.00918   1.01107   1.01359   1.02223   1.03537
 Alpha virt. eigenvalues --    1.04178   1.04492   1.04940   1.05431   1.05547
 Alpha virt. eigenvalues --    1.06862   1.07696   1.08049   1.08989   1.09197
 Alpha virt. eigenvalues --    1.10009   1.10870   1.12168   1.12646   1.13562
 Alpha virt. eigenvalues --    1.14762   1.15213   1.15806   1.16316   1.17132
 Alpha virt. eigenvalues --    1.17615   1.18144   1.18336   1.18863   1.19961
 Alpha virt. eigenvalues --    1.21188   1.21541   1.22039   1.23017   1.23496
 Alpha virt. eigenvalues --    1.24028   1.24459   1.25241   1.25671   1.26125
 Alpha virt. eigenvalues --    1.26497   1.27751   1.28009   1.28459   1.29176
 Alpha virt. eigenvalues --    1.30011   1.30725   1.31151   1.31984   1.32439
 Alpha virt. eigenvalues --    1.32801   1.33808   1.34068   1.34319   1.35379
 Alpha virt. eigenvalues --    1.36496   1.36925   1.37333   1.37583   1.38764
 Alpha virt. eigenvalues --    1.40042   1.40566   1.41302   1.41737   1.44019
 Alpha virt. eigenvalues --    1.44700   1.45349   1.46016   1.46581   1.47885
 Alpha virt. eigenvalues --    1.48370   1.50122   1.50998   1.51398   1.53179
 Alpha virt. eigenvalues --    1.53706   1.55066   1.55481   1.56903   1.57348
 Alpha virt. eigenvalues --    1.58243   1.59324   1.60485   1.61187   1.61948
 Alpha virt. eigenvalues --    1.63196   1.65390   1.66325   1.66447   1.68229
 Alpha virt. eigenvalues --    1.68921   1.70494   1.72359   1.73422   1.74770
 Alpha virt. eigenvalues --    1.75601   1.77647   1.77916   1.78836   1.79756
 Alpha virt. eigenvalues --    1.82300   1.83276   1.84053   1.86421   1.87674
 Alpha virt. eigenvalues --    1.88515   1.90464   1.92630   1.93384   1.93878
 Alpha virt. eigenvalues --    1.97492   2.00513   2.01567   2.02433   2.03003
 Alpha virt. eigenvalues --    2.03517   2.04770   2.08331   2.13935   2.14463
 Alpha virt. eigenvalues --    2.14885   2.16418   2.18000   2.18317   2.19572
 Alpha virt. eigenvalues --    2.20214   2.20956   2.22200   2.23628   2.24791
 Alpha virt. eigenvalues --    2.24864   2.26912   2.28149   2.29629   2.29914
 Alpha virt. eigenvalues --    2.31293   2.32827   2.35669   2.36396   2.37335
 Alpha virt. eigenvalues --    2.38955   2.39517   2.40335   2.40883   2.41327
 Alpha virt. eigenvalues --    2.42328   2.43689   2.44227   2.45014   2.45753
 Alpha virt. eigenvalues --    2.46664   2.48438   2.48805   2.50189   2.50599
 Alpha virt. eigenvalues --    2.51643   2.52370   2.52818   2.53619   2.54530
 Alpha virt. eigenvalues --    2.55750   2.56269   2.57394   2.59291   2.59746
 Alpha virt. eigenvalues --    2.60281   2.60571   2.62322   2.63663   2.64674
 Alpha virt. eigenvalues --    2.65290   2.66157   2.67057   2.67379   2.68381
 Alpha virt. eigenvalues --    2.69036   2.69983   2.70532   2.70657   2.70948
 Alpha virt. eigenvalues --    2.71453   2.72241   2.73034   2.73579   2.74689
 Alpha virt. eigenvalues --    2.75107   2.75727   2.76098   2.77161   2.77456
 Alpha virt. eigenvalues --    2.78161   2.78762   2.80075   2.80810   2.81598
 Alpha virt. eigenvalues --    2.82634   2.83108   2.83662   2.84627   2.85696
 Alpha virt. eigenvalues --    2.86430   2.86536   2.87060   2.87496   2.88125
 Alpha virt. eigenvalues --    2.89669   2.90396   2.91289   2.91893   2.92300
 Alpha virt. eigenvalues --    2.92809   2.93651   2.94227   2.95298   2.95627
 Alpha virt. eigenvalues --    2.95904   2.96863   2.96976   2.98518   2.98637
 Alpha virt. eigenvalues --    2.98905   2.99707   3.00702   3.01406   3.01756
 Alpha virt. eigenvalues --    3.02199   3.02363   3.02997   3.04243   3.04569
 Alpha virt. eigenvalues --    3.05559   3.05677   3.06270   3.06777   3.07418
 Alpha virt. eigenvalues --    3.08021   3.08450   3.08638   3.09271   3.10366
 Alpha virt. eigenvalues --    3.10988   3.11371   3.11746   3.12673   3.13439
 Alpha virt. eigenvalues --    3.14113   3.14901   3.14939   3.15722   3.16410
 Alpha virt. eigenvalues --    3.16850   3.17443   3.18027   3.18683   3.19629
 Alpha virt. eigenvalues --    3.20310   3.21412   3.21739   3.22226   3.23260
 Alpha virt. eigenvalues --    3.23888   3.25007   3.26022   3.26192   3.27763
 Alpha virt. eigenvalues --    3.28954   3.29863   3.30080   3.31232   3.31566
 Alpha virt. eigenvalues --    3.31869   3.32088   3.33324   3.33655   3.34450
 Alpha virt. eigenvalues --    3.34823   3.35319   3.36067   3.36401   3.37178
 Alpha virt. eigenvalues --    3.37689   3.38187   3.39141   3.39873   3.40529
 Alpha virt. eigenvalues --    3.41242   3.42033   3.43034   3.43449   3.44190
 Alpha virt. eigenvalues --    3.44313   3.45163   3.45959   3.46418   3.46840
 Alpha virt. eigenvalues --    3.47858   3.49050   3.49377   3.50012   3.51479
 Alpha virt. eigenvalues --    3.51859   3.52939   3.53787   3.54409   3.55785
 Alpha virt. eigenvalues --    3.56751   3.57022   3.59133   3.59459   3.59918
 Alpha virt. eigenvalues --    3.60352   3.61687   3.62715   3.63631   3.64490
 Alpha virt. eigenvalues --    3.65594   3.67109   3.67459   3.68738   3.68989
 Alpha virt. eigenvalues --    3.70650   3.70803   3.72019   3.72477   3.72959
 Alpha virt. eigenvalues --    3.73973   3.75098   3.75775   3.76032   3.76899
 Alpha virt. eigenvalues --    3.77432   3.78596   3.78887   3.79195   3.80163
 Alpha virt. eigenvalues --    3.81283   3.81558   3.81896   3.82421   3.83400
 Alpha virt. eigenvalues --    3.83776   3.84910   3.85651   3.86120   3.87041
 Alpha virt. eigenvalues --    3.87307   3.87881   3.89071   3.89278   3.90276
 Alpha virt. eigenvalues --    3.91073   3.91469   3.92260   3.93129   3.93544
 Alpha virt. eigenvalues --    3.94814   3.95467   3.96026   3.96499   3.97663
 Alpha virt. eigenvalues --    3.98092   3.99046   4.00612   4.01169   4.02747
 Alpha virt. eigenvalues --    4.02979   4.04012   4.04445   4.04918   4.06486
 Alpha virt. eigenvalues --    4.07221   4.07439   4.08596   4.09142   4.09779
 Alpha virt. eigenvalues --    4.10580   4.11354   4.11912   4.12770   4.13900
 Alpha virt. eigenvalues --    4.14581   4.15225   4.15658   4.16250   4.17660
 Alpha virt. eigenvalues --    4.17985   4.18987   4.19616   4.20454   4.21157
 Alpha virt. eigenvalues --    4.21977   4.22551   4.23542   4.24645   4.25421
 Alpha virt. eigenvalues --    4.26540   4.27075   4.29181   4.29399   4.29898
 Alpha virt. eigenvalues --    4.30860   4.31958   4.32859   4.33884   4.34086
 Alpha virt. eigenvalues --    4.35105   4.36653   4.37578   4.38279   4.39429
 Alpha virt. eigenvalues --    4.39848   4.40511   4.41762   4.43270   4.43859
 Alpha virt. eigenvalues --    4.44340   4.45116   4.46005   4.47470   4.49438
 Alpha virt. eigenvalues --    4.50018   4.52355   4.54170   4.55355   4.56356
 Alpha virt. eigenvalues --    4.58134   4.59712   4.60512   4.61339   4.63125
 Alpha virt. eigenvalues --    4.64961   4.65021   4.66408   4.68978   4.69992
 Alpha virt. eigenvalues --    4.71830   4.72916   4.73809   4.75473   4.75792
 Alpha virt. eigenvalues --    4.76919   4.77708   4.78210   4.79060   4.80431
 Alpha virt. eigenvalues --    4.80847   4.81514   4.83018   4.84324   4.86381
 Alpha virt. eigenvalues --    4.87375   4.87764   4.88655   4.90351   4.91049
 Alpha virt. eigenvalues --    4.92422   4.93347   4.93529   4.93745   4.95228
 Alpha virt. eigenvalues --    4.95647   4.96248   4.97907   4.99119   4.99530
 Alpha virt. eigenvalues --    5.01357   5.02553   5.03654   5.04988   5.05837
 Alpha virt. eigenvalues --    5.07157   5.08708   5.10241   5.10648   5.11334
 Alpha virt. eigenvalues --    5.12213   5.13024   5.13809   5.15083   5.15909
 Alpha virt. eigenvalues --    5.16798   5.17119   5.17635   5.19760   5.20526
 Alpha virt. eigenvalues --    5.21000   5.21969   5.23788   5.24989   5.26304
 Alpha virt. eigenvalues --    5.26850   5.27722   5.29519   5.30506   5.30800
 Alpha virt. eigenvalues --    5.32406   5.33671   5.34470   5.35858   5.36860
 Alpha virt. eigenvalues --    5.38831   5.41559   5.43110   5.46646   5.48490
 Alpha virt. eigenvalues --    5.50033   5.51457   5.54166   5.55016   5.57421
 Alpha virt. eigenvalues --    5.60094   5.61823   5.63364   5.65616   5.66848
 Alpha virt. eigenvalues --    5.67710   5.68065   5.69487   5.70115   5.71259
 Alpha virt. eigenvalues --    5.74996   5.78148   5.79557   5.80932   5.82648
 Alpha virt. eigenvalues --    5.83263   5.83396   5.84319   5.88256   5.89558
 Alpha virt. eigenvalues --    5.90959   5.91622   5.93777   5.95442   5.97980
 Alpha virt. eigenvalues --    6.00887   6.07846   6.10213   6.11493   6.14741
 Alpha virt. eigenvalues --    6.18107   6.18397   6.22069   6.32909   6.43977
 Alpha virt. eigenvalues --    6.47536   6.49406   6.51551   6.53391   6.54703
 Alpha virt. eigenvalues --    6.57344   6.57809   6.65295   6.80757   6.88459
 Alpha virt. eigenvalues --    6.90689   7.04828   7.08270   7.09985   7.10343
 Alpha virt. eigenvalues --    8.34064   9.14383   9.22117  10.19984  11.52012
 Alpha virt. eigenvalues --   11.74110  11.93552  12.11032  12.51030  12.61571
 Alpha virt. eigenvalues --   12.63723  12.76205  13.28115  13.46710  13.73310
 Alpha virt. eigenvalues --   13.78164  13.90742  14.22783  15.90991
          Condensed to atoms (all electrons):
               1          2          3          4          5          6
     1  C    5.324926   0.278212   0.008743  -0.062651  -0.019652   0.295894
     2  C    0.278212   5.202429   0.294342  -0.010923  -0.050379  -0.014393
     3  C    0.008743   0.294342   5.214055   0.391021  -0.025208  -0.053065
     4  C   -0.062651  -0.010923   0.391021   5.102372   0.376350  -0.018586
     5  C   -0.019652  -0.050379  -0.025208   0.376350   5.086961   0.408871
     6  C    0.295894  -0.014393  -0.053065  -0.018586   0.408871   5.203384
     7  C    0.271613  -0.028226   0.010889  -0.001823   0.005371  -0.069978
     8  C   -0.007293  -0.109811   0.000703   0.000019  -0.000526   0.009359
     9  H    0.012741  -0.081080   0.468422  -0.057508   0.010064  -0.003432
    10  H   -0.003141   0.012365  -0.068005   0.467614  -0.060671   0.010382
    11  H    0.014457  -0.003682   0.010742  -0.063281   0.469571  -0.072844
    12  H   -0.066374   0.007818  -0.001764   0.007852  -0.039760   0.448020
    13  H    0.012160   0.002625   0.000053   0.000022   0.000010  -0.000244
    14  N   -0.085567   0.384918  -0.052586   0.005893  -0.001067   0.008704
    15  H   -0.000772  -0.028310  -0.003678   0.000419  -0.000062  -0.000146
    16  C   -0.070729   0.012243  -0.000023  -0.000225   0.000022  -0.008174
    17  H   -0.007586   0.000110  -0.000068   0.000019  -0.000005   0.001302
    18  H    0.010731   0.000075   0.000064  -0.000044  -0.000405  -0.000748
    19  C    0.005787  -0.001158  -0.000036   0.000010  -0.000019   0.000060
    20  H    0.002271  -0.000323  -0.000003   0.000000   0.000001   0.000062
    21  C   -0.001239   0.000072   0.000000   0.000000  -0.000005  -0.000128
    22  O    0.000033   0.000000   0.000000   0.000000  -0.000001  -0.000024
    23  N   -0.002574   0.000618   0.000014  -0.000001  -0.000008  -0.000166
    24  H   -0.000085   0.000009   0.000001   0.000000   0.000001   0.000009
    25  C    0.000343   0.000188   0.000017  -0.000004  -0.000017  -0.000309
    26  C   -0.000042   0.000020   0.000000   0.000000   0.000000  -0.000003
    27  H    0.000002  -0.000001   0.000000   0.000000   0.000000  -0.000001
    28  H    0.000001   0.000000   0.000000   0.000000   0.000000  -0.000001
    29  H    0.000000  -0.000001   0.000000   0.000000   0.000000   0.000001
    30  O   -0.002627   0.000929   0.000075  -0.000014  -0.000091  -0.000221
    31  N    0.000004   0.000000   0.000000   0.000000   0.000000  -0.000001
    32  H   -0.000001   0.000000   0.000000   0.000000   0.000000   0.000000
    33  C    0.000000   0.000000   0.000000   0.000000   0.000000   0.000000
    34  H    0.000000   0.000000   0.000000   0.000000   0.000000   0.000000
    35  H    0.000000   0.000000   0.000000   0.000000   0.000000   0.000000
    36  H    0.000000   0.000000   0.000000   0.000000   0.000000   0.000000
               7          8          9         10         11         12
     1  C    0.271613  -0.007293   0.012741  -0.003141   0.014457  -0.066374
     2  C   -0.028226  -0.109811  -0.081080   0.012365  -0.003682   0.007818
     3  C    0.010889   0.000703   0.468422  -0.068005   0.010742  -0.001764
     4  C   -0.001823   0.000019  -0.057508   0.467614  -0.063281   0.007852
     5  C    0.005371  -0.000526   0.010064  -0.060671   0.469571  -0.039760
     6  C   -0.069978   0.009359  -0.003432   0.010382  -0.072844   0.448020
     7  C    5.380397   0.429461  -0.000133   0.000094  -0.000290  -0.008676
     8  C    0.429461   5.141285  -0.000430   0.000027   0.000041   0.000263
     9  H   -0.000133  -0.000430   0.549849  -0.009787  -0.000124   0.000042
    10  H    0.000094   0.000027  -0.009787   0.536311  -0.007082  -0.000213
    11  H   -0.000290   0.000041  -0.000124  -0.007082   0.541827  -0.007361
    12  H   -0.008676   0.000263   0.000042  -0.000213  -0.007361   0.510825
    13  H   -0.071334   0.430717  -0.000009   0.000000  -0.000001  -0.000023
    14  N   -0.069384   0.355935  -0.002106  -0.000154   0.000008  -0.000145
    15  H    0.003080  -0.020289   0.000595  -0.000001  -0.000006   0.000027
    16  C    0.206943  -0.047947   0.000031  -0.000001   0.000013   0.004742
    17  H   -0.038255  -0.001269  -0.000002   0.000000  -0.000004  -0.000026
    18  H   -0.056071   0.003551   0.000003   0.000000   0.000018   0.002124
    19  C    0.019880  -0.008725  -0.000002   0.000000  -0.000001  -0.000175
    20  H    0.005495  -0.004946   0.000000   0.000000   0.000000   0.000009
    21  C   -0.009432   0.001725   0.000000   0.000000   0.000000   0.000023
    22  O    0.004956  -0.000089   0.000000   0.000000   0.000000  -0.000075
    23  N   -0.025228  -0.001837   0.000000   0.000000   0.000000   0.000065
    24  H    0.000881   0.000205   0.000000   0.000000   0.000000  -0.000003
    25  C   -0.009718  -0.000588   0.000000   0.000000   0.000000  -0.000033
    26  C   -0.000572   0.000053   0.000000   0.000000   0.000000  -0.000001
    27  H    0.000049  -0.000001   0.000000   0.000000   0.000000   0.000006
[...]
    35  H    0.000000   0.000000   0.000000   0.000000   0.000000   0.000000
    36  H    0.000001   0.000000   0.000000   0.000000   0.000000   0.000000
               7          8          9         10         11         12
     1  C    0.293363  -0.060407   0.011668  -0.003331   0.014090  -0.072314
     2  C   -0.033162  -0.136611  -0.076180   0.012475  -0.003189   0.006550
     3  C    0.014564   0.006871   0.458653  -0.066377   0.011054  -0.002642
     4  C   -0.002152  -0.000079  -0.049343   0.468494  -0.065002   0.007836
     5  C    0.008762  -0.000583   0.009161  -0.066570   0.469747  -0.039217
     6  C   -0.080220   0.012362  -0.003392   0.012178  -0.073333   0.428215
     7  C    5.411443   0.496520  -0.000231   0.000048  -0.000131  -0.009314
     8  C    0.496520   5.121539  -0.000371   0.000032   0.000029   0.000132
     9  H   -0.000231  -0.000371   0.543927  -0.009273  -0.000131   0.000018
    10  H    0.000048   0.000032  -0.009273   0.534735  -0.008023  -0.000107
    11  H   -0.000131   0.000029  -0.000131  -0.008023   0.521392  -0.006455
    12  H   -0.009314   0.000132   0.000018  -0.000107  -0.006455   0.448492
    13  H   -0.059994   0.428609  -0.000024   0.000000  -0.000001  -0.000001
    14  N   -0.100587   0.415862  -0.002851  -0.000179   0.000003   0.000016
    15  H    0.002379  -0.033118   0.003289  -0.000022  -0.000003   0.000026
    16  C    0.172243  -0.087760   0.000022  -0.000001   0.000027   0.004418
    17  H   -0.037316  -0.003830  -0.000001   0.000000  -0.000001  -0.000106
    18  H   -0.042052   0.004125   0.000001   0.000000   0.000002   0.001174
    19  C   -0.029773   0.006649   0.000000   0.000000   0.000001  -0.000333
    20  H    0.000799   0.003465   0.000000   0.000000   0.000000   0.000042
    21  C   -0.000064   0.001483   0.000000   0.000000   0.000000  -0.000328
    22  O    0.005925  -0.000027   0.000000   0.000000   0.000000   0.000000
    23  N   -0.004147   0.001534   0.000001   0.000000   0.000004  -0.000492
    24  H    0.001970   0.000336   0.000002  -0.000001   0.000007  -0.000730
    25  C   -0.000833  -0.000575   0.000000  -0.000001   0.000020   0.001302
    26  C    0.000955  -0.000059   0.000000   0.000002   0.000092  -0.003441
    27  H   -0.000085   0.000001   0.000000   0.000000   0.000026   0.000319
    28  H    0.000041  -0.000066   0.000000   0.000030  -0.000044  -0.002144
    29  H   -0.000139  -0.000019   0.000000   0.000000  -0.000007   0.000504
    30  O    0.002830  -0.000072   0.000000   0.000000  -0.000038   0.014960
    31  N    0.000364   0.000006   0.000000   0.000000   0.000000   0.000019
    32  H   -0.000063  -0.000019   0.000000   0.000000   0.000000   0.000042
    33  C   -0.000022   0.000002   0.000000   0.000000   0.000000  -0.000002
    34  H    0.000006   0.000000   0.000000   0.000000   0.000000  -0.000001
    35  H   -0.000002   0.000000   0.000000   0.000000   0.000000   0.000000
    36  H   -0.000027   0.000001   0.000000   0.000000   0.000000   0.000000
              13         14         15         16         17         18
     1  C    0.014342  -0.122092   0.011847  -0.055089   0.002472  -0.001834
     2  C    0.003445   0.473168  -0.042892   0.016633  -0.000344  -0.000457
     3  C   -0.000411  -0.036968  -0.001532  -0.000143   0.000002  -0.000034
     4  C    0.000045   0.002912  -0.000335  -0.000190   0.000005  -0.000009
     5  C   -0.000007   0.000477   0.000153   0.000525   0.000003   0.000291
     6  C   -0.000104   0.005048  -0.000497  -0.009918   0.000066   0.004251
     7  C   -0.059994  -0.100587   0.002379   0.172243  -0.037316  -0.042052
     8  C    0.428609   0.415862  -0.033118  -0.087760  -0.003830   0.004125
     9  H   -0.000024  -0.002851   0.003289   0.000022  -0.000001   0.000001
    10  H    0.000000  -0.000179  -0.000022  -0.000001   0.000000   0.000000
    11  H   -0.000001   0.000003  -0.000003   0.000027  -0.000001   0.000002
    12  H   -0.000001   0.000016   0.000026   0.004418  -0.000106   0.001174
    13  H    0.500992  -0.029156  -0.002755  -0.001635   0.001432  -0.000024
    14  N   -0.029156   6.063063   0.407190   0.004087   0.000016  -0.000114
    15  H   -0.002755   0.407190   0.554639  -0.000384  -0.000020   0.000020
    16  C   -0.001635   0.004087  -0.000384   5.459886   0.413780   0.411341
    17  H    0.001432   0.000016  -0.000020   0.413780   0.445299  -0.001793
    18  H   -0.000024  -0.000114   0.000020   0.411341  -0.001793   0.438352
    19  C    0.000225  -0.000122   0.000029   0.238462  -0.045522  -0.045088
    20  H    0.001226  -0.000225   0.000013  -0.038021  -0.002880   0.003713
    21  C    0.000014  -0.000026  -0.000001  -0.084833   0.000617   0.005101
    22  O    0.000000   0.000000   0.000000   0.008174   0.016225   0.002589
    23  N    0.000141  -0.000361  -0.000006  -0.061132   0.004711  -0.004679
    24  H   -0.000104  -0.000039  -0.000004  -0.000230  -0.000412   0.000388
    25  C   -0.000004   0.000056  -0.000002  -0.013813   0.000839   0.000228
    26  C    0.000000  -0.000034   0.000000  -0.001307   0.000053   0.000902
    27  H    0.000000  -0.000001   0.000000  -0.000106  -0.000002  -0.000033
    28  H   -0.000001   0.000028   0.000000   0.000323  -0.000009  -0.000130
    29  H    0.000000   0.000007   0.000000   0.000275  -0.000002  -0.000106
    30  O   -0.000001   0.000002   0.000000  -0.005708   0.000350   0.011631
    31  N    0.000001   0.000000   0.000000   0.004789   0.001244  -0.000467
    32  H    0.000001   0.000000   0.000000   0.001720  -0.000208  -0.000112
    33  C    0.000000   0.000000   0.000000  -0.000734  -0.000013   0.000027
    34  H    0.000000   0.000000   0.000000   0.000169  -0.000001   0.000032
    35  H    0.000000   0.000000   0.000000  -0.000040   0.000003  -0.000002
    36  H    0.000000   0.000000   0.000000  -0.000457  -0.000100  -0.000040
              19         20         21         22         23         24
     1  C    0.000266   0.003210  -0.000383  -0.000174   0.007248  -0.002785
     2  C   -0.000870  -0.000357   0.000112   0.000000   0.003262   0.000079
     3  C    0.000052  -0.000004   0.000002   0.000000   0.000152   0.000124
     4  C    0.000005   0.000002   0.000000   0.000000  -0.000039  -0.000060
     5  C    0.000034   0.000003   0.000000   0.000000  -0.000013   0.000207
     6  C   -0.000440   0.000109  -0.000373   0.000010  -0.012449  -0.001058
     7  C   -0.029773   0.000799  -0.000064   0.005925  -0.004147   0.001970
     8  C    0.006649   0.003465   0.001483  -0.000027   0.001534   0.000336
     9  H    0.000000   0.000000   0.000000   0.000000   0.000001   0.000002
    10  H    0.000000   0.000000   0.000000   0.000000   0.000000  -0.000001
    11  H    0.000001   0.000000   0.000000   0.000000   0.000004   0.000007
    12  H   -0.000333   0.000042  -0.000328   0.000000  -0.000492  -0.000730
    13  H    0.000225   0.001226   0.000014   0.000000   0.000141  -0.000104
    14  N   -0.000122  -0.000225  -0.000026   0.000000  -0.000361  -0.000039
    15  H    0.000029   0.000013  -0.000001   0.000000  -0.000006  -0.000004
    16  C    0.238462  -0.038021  -0.084833   0.008174  -0.061132  -0.000230
    17  H   -0.045522  -0.002880   0.000617   0.016225   0.004711  -0.000412
    18  H   -0.045088   0.003713   0.005101   0.002589  -0.004679   0.000388
    19  C    5.378075   0.413372   0.175251  -0.102263   0.255836  -0.021232
    20  H    0.413372   0.468289  -0.010751  -0.000871  -0.033617  -0.008053
    21  C    0.175251  -0.010751   4.618235   0.722179  -0.040598   0.003951
    22  O   -0.102263  -0.000871   0.722179   7.819300   0.003528  -0.000253
    23  N    0.255836  -0.033617  -0.040598   0.003528   6.612425   0.369676
    24  H   -0.021232  -0.008053   0.003951  -0.000253   0.369676   0.526073
    25  C   -0.060829   0.005300   0.005511  -0.000888   0.271435  -0.011246
    26  C    0.002012  -0.000235   0.001228  -0.000015  -0.098434   0.003240
    27  H   -0.000308   0.000014   0.000059   0.000000   0.006596  -0.000050
    28  H   -0.000473   0.000026  -0.000083   0.000001  -0.002068  -0.000517
    29  H    0.001397  -0.000040  -0.000527   0.000001   0.014083  -0.003903
    30  O    0.002209   0.000092   0.015863  -0.000560  -0.127162   0.004964
    31  N   -0.080801  -0.002116   0.409291  -0.110404  -0.011484  -0.000486
    32  H    0.000304  -0.000302  -0.037303   0.004897   0.023719  -0.000499
    33  C    0.006384  -0.000087  -0.053198  -0.016147  -0.001554   0.000128
    34  H    0.000525  -0.000026   0.004244   0.000225  -0.000145  -0.000002
    35  H   -0.000750   0.000065   0.002366   0.000000   0.000029  -0.000003
    36  H    0.004247  -0.000098  -0.014504   0.030022  -0.000358   0.000024
              25         26         27         28         29         30
     1  C   -0.002122  -0.002758   0.000540  -0.002629  -0.000263  -0.005091
     2  C   -0.001164   0.000402   0.000044  -0.000063   0.000018  -0.000177
     3  C   -0.000017   0.000103  -0.000001  -0.000459  -0.000034  -0.000003
     4  C   -0.000026   0.000101  -0.000014   0.000730  -0.000006   0.000003
     5  C    0.001052  -0.003549  -0.000130   0.001190   0.000136   0.000129
     6  C    0.006392  -0.004130  -0.000257   0.012445   0.000454  -0.006641
     7  C   -0.000833   0.000955  -0.000085   0.000041  -0.000139   0.002830
     8  C   -0.000575  -0.000059   0.000001  -0.000066  -0.000019  -0.000072
     9  H    0.000000   0.000000   0.000000   0.000000   0.000000   0.000000
    10  H   -0.000001   0.000002   0.000000   0.000030   0.000000   0.000000
    11  H    0.000020   0.000092   0.000026  -0.000044  -0.000007  -0.000038
    12  H    0.001302  -0.003441   0.000319  -0.002144   0.000504   0.014960
    13  H   -0.000004   0.000000   0.000000  -0.000001   0.000000  -0.000001
    14  N    0.000056  -0.000034  -0.000001   0.000028   0.000007   0.000002
    15  H   -0.000002   0.000000   0.000000   0.000000   0.000000   0.000000
    16  C   -0.013813  -0.001307  -0.000106   0.000323   0.000275  -0.005708
    17  H    0.000839   0.000053  -0.000002  -0.000009  -0.000002   0.000350
    18  H    0.000228   0.000902  -0.000033  -0.000130  -0.000106   0.011631
    19  C   -0.060829   0.002012  -0.000308  -0.000473   0.001397   0.002209
    20  H    0.005300  -0.000235   0.000014   0.000026  -0.000040   0.000092
    21  C    0.005511   0.001228   0.000059  -0.000083  -0.000527   0.015863
    22  O   -0.000888  -0.000015   0.000000   0.000001   0.000001  -0.000560
    23  N    0.271435  -0.098434   0.006596  -0.002068   0.014083  -0.127162
    24  H   -0.011246   0.003240  -0.000050  -0.000517  -0.003903   0.004964
    25  C    4.708175   0.279046  -0.037152  -0.023390  -0.054376   0.710595
    26  C    0.279046   5.087051   0.395346   0.376658   0.395403  -0.070496
    27  H   -0.037152   0.395346   0.540442  -0.015515  -0.022838   0.005885
    28  H   -0.023390   0.376658  -0.015515   0.528425  -0.029332  -0.000985
    29  H   -0.054376   0.395403  -0.022838  -0.029332   0.583704   0.003436
    30  O    0.710595  -0.070496   0.005885  -0.000985   0.003436   7.800640
    31  N    0.011409   0.000095   0.000089  -0.000013   0.000031  -0.008703
    32  H   -0.001783  -0.000794  -0.000151   0.000058   0.000501  -0.003748
    33  C   -0.000496  -0.000039   0.000014  -0.000001  -0.000011   0.000324
    34  H   -0.000444  -0.000001  -0.000005   0.000001  -0.000011   0.000859
    35  H    0.000170   0.000002   0.000001   0.000000   0.000001  -0.000015
    36  H   -0.000011   0.000000   0.000001   0.000000  -0.000001   0.000012
              31         32         33         34         35         36
     1  C   -0.000049   0.000034   0.000002   0.000000   0.000000   0.000001
     2  C    0.000000  -0.000004   0.000000   0.000000   0.000000   0.000000
     3  C    0.000000   0.000000   0.000000   0.000000   0.000000   0.000000
     4  C    0.000000   0.000000   0.000000   0.000000   0.000000   0.000000
     5  C    0.000000  -0.000001   0.000000   0.000000   0.000000   0.000000
     6  C    0.000002   0.000014  -0.000001   0.000000   0.000000   0.000000
     7  C    0.000364  -0.000063  -0.000022   0.000006  -0.000002  -0.000027
     8  C    0.000006  -0.000019   0.000002   0.000000   0.000000   0.000001
     9  H    0.000000   0.000000   0.000000   0.000000   0.000000   0.000000
    10  H    0.000000   0.000000   0.000000   0.000000   0.000000   0.000000
    11  H    0.000000   0.000000   0.000000   0.000000   0.000000   0.000000
    12  H    0.000019   0.000042  -0.000002  -0.000001   0.000000   0.000000
    13  H    0.000001   0.000001   0.000000   0.000000   0.000000   0.000000
    14  N    0.000000   0.000000   0.000000   0.000000   0.000000   0.000000
    15  H    0.000000   0.000000   0.000000   0.000000   0.000000   0.000000
    16  C    0.004789   0.001720  -0.000734   0.000169  -0.000040  -0.000457
    17  H    0.001244  -0.000208  -0.000013  -0.000001   0.000003  -0.000100
    18  H   -0.000467  -0.000112   0.000027   0.000032  -0.000002  -0.000040
    19  C   -0.080801   0.000304   0.006384   0.000525  -0.000750   0.004247
    20  H   -0.002116  -0.000302  -0.000087  -0.000026   0.000065  -0.000098
    21  C    0.409291  -0.037303  -0.053198   0.004244   0.002366  -0.014504
    22  O   -0.110404   0.004897  -0.016147   0.000225   0.000000   0.030022
    23  N   -0.011484   0.023719  -0.001554  -0.000145   0.000029  -0.000358
    24  H   -0.000486  -0.000499   0.000128  -0.000002  -0.000003   0.000024
    25  C    0.011409  -0.001783  -0.000496  -0.000444   0.000170  -0.000011
    26  C    0.000095  -0.000794  -0.000039  -0.000001   0.000002   0.000000
    27  H    0.000089  -0.000151   0.000014  -0.000005   0.000001   0.000001
    28  H   -0.000013   0.000058  -0.000001   0.000001   0.000000   0.000000
    29  H    0.000031   0.000501  -0.000011  -0.000011   0.000001  -0.000001
    30  O   -0.008703  -0.003748   0.000324   0.000859  -0.000015   0.000012
    31  N    6.407554   0.387451   0.275024  -0.041719  -0.033482  -0.041171
    32  H    0.387451   0.518278  -0.031897  -0.002572  -0.005211   0.004994
    33  C    0.275024  -0.031897   4.806743   0.395339   0.402961   0.397722
    34  H   -0.041719  -0.002572   0.395339   0.622652  -0.046139  -0.030382
    35  H   -0.033482  -0.005211   0.402961  -0.046139   0.613350  -0.023308
    36  H   -0.041171   0.004994   0.397722  -0.030382  -0.023308   0.545329
 Mulliken charges:
               1
     1  C    0.132631
     2  C    0.074764
     3  C   -0.214879
     4  C   -0.131360
     5  C   -0.181815
     6  C   -0.280507
     7  C   -0.011898
     8  C   -0.175963
     9  H    0.115053
    10  H    0.125890
    11  H    0.139862
    12  H    0.223560
    13  H    0.143751
    14  N   -0.079182
    15  H    0.101986
    16  C   -0.375373
    17  H    0.205444
    18  H    0.212805
    19  C   -0.096529
    20  H    0.197942
    21  C    0.277466
    22  O   -0.381476
    23  N   -0.175644
    24  H    0.140497
    25  C    0.207641
    26  C   -0.357400
    27  H    0.127271
    28  H    0.157969
    29  H    0.111662
    30  O   -0.345384
    31  N   -0.166478
    32  H    0.142655
    33  C   -0.180467
    34  H    0.097396
    35  H    0.090003
    36  H    0.128106
 Sum of Mulliken charges =   0.00000
 Mulliken charges with hydrogens summed into heavy atoms:
               1
     1  C    0.132631
     2  C    0.074764
     3  C   -0.099827
     4  C   -0.005470
     5  C   -0.041954
     6  C   -0.056946
     7  C   -0.011898
     8  C   -0.032213
    14  N    0.022804
    16  C    0.042876
    19  C    0.101413
    21  C    0.277466
    22  O   -0.381476
    23  N   -0.035147
    25  C    0.207641
    26  C    0.039502
    30  O   -0.345384
    31  N   -0.023822
    33  C    0.135039
 Electronic spatial extent (au):  <R**2>=           5428.3234
 Charge=              0.0000 electrons
 Dipole moment (field-independent basis, Debye):
    X=             -2.3293    Y=             -0.3000    Z=              5.8860  Tot=              6.3372
 Quadrupole moment (field-independent basis, Debye-Ang):
   XX=           -104.6132   YY=           -104.9651   ZZ=           -111.9669
   XY=             10.6026   XZ=              4.7823   YZ=             -3.7055
 Traceless Quadrupole moment (field-independent basis, Debye-Ang):
   XX=              2.5685   YY=              2.2167   ZZ=             -4.7852
   XY=             10.6026   XZ=              4.7823   YZ=             -3.7055
 Octapole moment (field-independent basis, Debye-Ang**2):
  XXX=             20.7312  YYY=            -14.4644  ZZZ=             13.7813  XYY=            -28.1477
  XXY=             10.0302  XXZ=             48.3468  XZZ=              6.1437  YZZ=              0.8237
  YYZ=             25.1297  XYZ=             14.4535
 Hexadecapole moment (field-independent basis, Debye-Ang**3):
 XXXX=          -4816.1605 YYYY=          -1387.6132 ZZZZ=           -473.9091 XXXY=            172.2425
 XXXZ=            -38.8775 YYYX=             78.5827 YYYZ=            -43.7145 ZZZX=            -12.8282
 ZZZY=             -5.3880 XXYY=          -1089.7030 XXZZ=           -995.5244 YYZZ=           -323.4485
 XXYZ=            -84.4889 YYXZ=             -2.6170 ZZXY=             30.5642
 N-N= 1.452658393929D+03 E-N=-4.904310091245D+03  KE= 8.520855927361D+02
 Calculating spin-rotation constants.
 Leave Link  601 at Wed Oct  2 17:56:02 2013, MaxMem= 17179869184 cpu:       307.3
 (Enter /system/software/linux-x86_64/gaussian/g09/D.01__pgi_12.10__atlas/l9999.exe)

 Test job not archived.
 1\1\GINC-CARIBOU\SP\RM06\Gen\C14H17N3O2\KUPROV\02-Oct-2013\0\\#P Geom=
 AllCheck Guess=TCheck SCRF=Check GenChk RM06/ChkBas NMR=ReadFC IOp(3/6
 =22)\\J-coupling calculation 1\\0,1\C,0,-4.8333292379,-1.0314261218,0.
 870196751\C,0,-3.5922864861,-0.5935747889,1.3756048903\C,0,-3.28523609
 07,0.7536475927,1.5182157628\C,0,-4.2478661097,1.6680870666,1.14990543
 96\C,0,-5.4912729418,1.2552374239,0.6554453355\C,0,-5.7939181807,-0.08
 13576381,0.5150356393\C,0,-4.8149395628,-2.4636100186,0.8671743553\C,0
 ,-3.5981835557,-2.8290026668,1.3592089175\H,0,-2.3274435193,1.07465580
 6,1.9086044396\H,0,-4.0421448181,2.7258659246,1.2506954867\H,0,-6.2273
 109004,2.0021641824,0.3873173729\H,0,-6.7607149579,-0.393663714,0.1357
 839751\H,0,-3.2023955613,-3.8175599766,1.5324909984\N,0,-2.8537092494,
 -1.7113960006,1.6612849914\H,0,-1.9414114004,-1.7155926694,2.076355796
 9\C,0,-5.8919927601,-3.3691109756,0.3810294862\H,0,-5.9906424375,-4.24
 79221272,1.0186050062\H,0,-6.8597349829,-2.8647855136,0.4015704479\C,0
 ,-5.6304365178,-3.870497632,-1.0394438888\H,0,-4.6982876149,-4.4471482
 949,-1.0198228029\C,0,-6.6985683827,-4.8747385056,-1.4742884017\O,0,-7
 .2647388438,-5.5627517942,-0.6538571641\N,0,-5.400780648,-2.8033010377
 ,-2.0034490086\H,0,-4.441748756,-2.5271661029,-2.1387473153\C,0,-6.349
 8231482,-1.8480064297,-2.2626659986\C,0,-5.8413042151,-0.6394702107,-2
 .9965128648\H,0,-6.6605837178,-0.1826772792,-3.54510939\H,0,-5.4768220
 177,0.0815415548,-2.2602728667\H,0,-5.0233128466,-0.8737746954,-3.6777
 794107\O,0,-7.503891361,-1.9771694889,-1.9219667282\N,0,-6.866571699,-
 4.9986309138,-2.8104083472\H,0,-6.4246485611,-4.3102059158,-3.39407231
 16\C,0,-7.8534412768,-5.8807486191,-3.3773788161\H,0,-8.7053737293,-5.
 328605942,-3.7789205425\H,0,-7.423044645,-6.4902619601,-4.1725895319\H
 ,0,-8.2092495662,-6.5344649278,-2.5844596526\\Version=EM64L-G09RevD.01
 \State=1-A\HF=-858.1726341\RMSD=4.819e-09\Dipole=2.3095028,0.4247247,-
 0.8379202\Quadrupole=0.409986,-5.4234798,5.0134939,-3.2549527,6.533997
 7,3.3515825\PG=C01 [X(C14H17N3O2)]\\@


 WHAT THE SLIME CONTAINS, THE GLOWING REVEALS
 BY THE FLAME'S BRIGHT HUE WHEN YOU IGNITE IT.
   --  LEONARD THURNEYSSER, 1531-1596
 DESCRIBING HIS FLAME PHOTOLYSIS ANALYTIC METHOD
 Job cpu time:      12 days  4 hours 59 minutes 22.3 seconds.
 File lengths (MBytes):  RWF=   4138 Int=      0 D2E=      0 Chk=     90 Scr=      1
 Normal termination of Gaussian 09 at Wed Oct  2 17:56:05 2013.
