 Entering Gaussian System, Link 0=g09
 Input=tyrosine.gjf
 Output=tyrosine.log
 Initial command:
 /system/software/linux-x86_64/gaussian/g09/D.01__pgi_12.10__atlas/l1.exe "/export/home/spin_dynamics/kuprov/zenawi/Gau-29171.inp" -scrdir="/export/home/spin_dynamics/kuprov/zenawi/"
 Entering Link 1 = /system/software/linux-x86_64/gaussian/g09/D.01__pgi_12.10__atlas/l1.exe PID=     29172.
  
 Copyright (c) 1988,1990,1992,1993,1995,1998,2003,2009,2013,
            Gaussian, Inc.  All Rights Reserved.
  
 This is part of the Gaussian(R) 09 program.  It is based on
 the Gaussian(R) 03 system (copyright 2003, Gaussian, Inc.),
 the Gaussian(R) 98 system (copyright 1998, Gaussian, Inc.),
 the Gaussian(R) 94 system (copyright 1995, Gaussian, Inc.),
 the Gaussian 92(TM) system (copyright 1992, Gaussian, Inc.),
 the Gaussian 90(TM) system (copyright 1990, Gaussian, Inc.),
 the Gaussian 88(TM) system (copyright 1988, Gaussian, Inc.),
 the Gaussian 86(TM) system (copyright 1986, Carnegie Mellon
 University), and the Gaussian 82(TM) system (copyright 1983,
 Carnegie Mellon University). Gaussian is a federally registered
 trademark of Gaussian, Inc.
  
 This software contains proprietary and confidential information,
 including trade secrets, belonging to Gaussian, Inc.
  
 This software is provided under written license and may be
 used, copied, transmitted, or stored only in accord with that
 written license.
  
 The following legend is applicable only to US Government
 contracts under FAR:
  
                    RESTRICTED RIGHTS LEGEND
  
 Use, reproduction and disclosure by the US Government is
 subject to restrictions as set forth in subparagraphs (a)
 and (c) of the Commercial Computer Software - Restricted
 Rights clause in FAR 52.227-19.
  
 Gaussian, Inc.
 340 Quinnipiac St., Bldg. 40, Wallingford CT 06492
  
  
 ---------------------------------------------------------------
 Warning -- This program may not be used in any manner that
 competes with the business of Gaussian, Inc. or will provide
 assistance to any competitor of Gaussian, Inc.  The licensee
 of this program is prohibited from giving any competitor of
 Gaussian, Inc. access to this program.  By using this program,
 the user acknowledges that Gaussian, Inc. is engaged in the
 business of creating and licensing software in the field of
 computational chemistry and represents and warrants to the
 licensee that it is not a competitor of Gaussian, Inc. and that
 it will not use this program in any manner prohibited above.
 ---------------------------------------------------------------
  

 Cite this work as:
 Gaussian 09, Revision D.01,
 M. J. Frisch, G. W. Trucks, H. B. Schlegel, G. E. Scuseria, 
 M. A. Robb, J. R. Cheeseman, G. Scalmani, V. Barone, B. Mennucci, 
 G. A. Petersson, H. Nakatsuji, M. Caricato, X. Li, H. P. Hratchian, 
 A. F. Izmaylov, J. Bloino, G. Zheng, J. L. Sonnenberg, M. Hada, 
 M. Ehara, K. Toyota, R. Fukuda, J. Hasegawa, M. Ishida, T. Nakajima, 
 Y. Honda, O. Kitao, H. Nakai, T. Vreven, J. A. Montgomery, Jr., 
 J. E. Peralta, F. Ogliaro, M. Bearpark, J. J. Heyd, E. Brothers, 
 K. N. Kudin, V. N. Staroverov, T. Keith, R. Kobayashi, J. Normand, 
 K. Raghavachari, A. Rendell, J. C. Burant, S. S. Iyengar, J. Tomasi, 
 M. Cossi, N. Rega, J. M. Millam, M. Klene, J. E. Knox, J. B. Cross, 
 V. Bakken, C. Adamo, J. Jaramillo, R. Gomperts, R. E. Stratmann, 
 O. Yazyev, A. J. Austin, R. Cammi, C. Pomelli, J. W. Ochterski, 
 R. L. Martin, K. Morokuma, V. G. Zakrzewski, G. A. Voth, 
 P. Salvador, J. J. Dannenberg, S. Dapprich, A. D. Daniels, 
 O. Farkas, J. B. Foresman, J. V. Ortiz, J. Cioslowski, 
 and D. J. Fox, Gaussian, Inc., Wallingford CT, 2013.
 
 ******************************************
 Gaussian 09:  EM64L-G09RevD.01 24-Apr-2013
                29-Sep-2013 
 ******************************************
 %Chk=tyrosine.chk
 %Mem=128GB
 %NProcShared=24
 Will use up to   24 processors via shared memory.
 ------------------------------------------------------------
 #p opt=tight m06/cc-pvtz scf=tight integral=(grid=ultrafine)
 ------------------------------------------------------------
 1/7=10,14=-1,18=20,19=15,26=4,38=1/1,3;
 2/9=110,12=2,17=6,18=5,40=1/2;
 3/5=16,6=1,11=2,16=1,25=1,30=1,71=1,74=-54,75=-5/1,2,3;
 4//1;
 5/5=2,32=2,38=5/2;
 6/7=2,8=2,9=2,10=2,28=1/1;
 7//1,2,3,16;
 1/7=10,14=-1,18=20,19=15,26=4/3(2);
 2/9=110/2;
 99//99;
 2/9=110/2;
 3/5=16,6=1,11=2,16=1,25=1,30=1,71=1,74=-54,75=-5/1,2,3;
 4/5=5,16=3,69=1/1;
 5/5=2,32=2,38=5/2;
 7//1,2,3,16;
 1/7=10,14=-1,18=20,19=15,26=4/3(-5);
 2/9=110/2;
 6/7=2,8=2,9=2,10=2,19=2,28=1/1;
 99/9=1/99;
 Leave Link    1 at Sun Sep 29 12:28:05 2013, MaxMem= 17179869184 cpu:         2.4
 (Enter /system/software/linux-x86_64/gaussian/g09/D.01__pgi_12.10__atlas/l101.exe)
 ---------------------
 Geometry optimisation
 ---------------------
 Symbolic Z-matrix:
 Charge =  0 Multiplicity = 1
 C                    -5.75988  -1.36799  -0.42084 
 C                    -4.38132  -1.39472  -0.17028 
 C                    -3.69704  -0.20451   0.11095 
 C                    -4.39133   1.01243   0.14163 
 C                    -5.76989   1.03916  -0.10892 
 C                    -6.45417  -0.15105  -0.39016 
 H                    -6.28233  -2.27675  -0.63557 
 H                    -3.85121  -2.32388  -0.19371 
 H                    -3.86888   1.92118   0.35636 
 H                    -6.3       1.96832  -0.0855 
 C                    -2.18214  -0.23388   0.38629 
 H                    -1.64995  -0.11242  -0.53399 
 H                    -1.92557   0.56158   1.05435 
 C                    -1.80248  -1.58295   1.02464 
 H                    -2.05906  -2.37841   0.35658 
 C                    -0.28758  -1.61232   1.29997 
 O                    -7.86086  -0.12378  -0.64583 
 H                    -8.01295  -0.0026   -1.58593 
 O                     0.32686  -0.54356   1.55251 
 N                    -2.53363  -1.74982   2.28895 
 H                    -2.29384  -1.00639   2.9133 
 N                     0.44069  -2.88883   1.26779 
 H                     0.77531  -3.05842   0.34083 
 C                    -2.17123  -3.03756   2.89828 
 C                    -0.98216  -3.12051   3.87339 
 H                    -1.15759  -3.90079   4.58422 
 H                    -0.08665  -3.3307    3.32679 
 H                    -0.87607  -2.18767   4.38666 
 C                     1.57892  -2.82712   2.19599 
 H                     2.10902  -3.75629   2.17256 
 H                     2.23535  -2.0345    1.90318 
 H                     1.22087  -2.64567   3.18784 
 O                    -2.83263  -4.07216   2.62309 
 
 NAtoms=     33 NQM=       33 NQMF=       0 NMMI=      0 NMMIF=      0
                NMic=       0 NMicF=      0.
                    Isotopes and Nuclear Properties:
 (Nuclear quadrupole moments (NQMom) in fm**2, nuclear magnetic moments (NMagM)
  in nuclear magnetons)

  Atom         1           2           3           4           5           6           7           8           9          10
 IAtWgt=          12          12          12          12          12          12           1           1           1           1
 AtmWgt=  12.0000000  12.0000000  12.0000000  12.0000000  12.0000000  12.0000000   1.0078250   1.0078250   1.0078250   1.0078250
 NucSpn=           0           0           0           0           0           0           1           1           1           1
 AtZEff=   0.0000000   0.0000000   0.0000000   0.0000000   0.0000000   0.0000000   0.0000000   0.0000000   0.0000000   0.0000000
 NQMom=    0.0000000   0.0000000   0.0000000   0.0000000   0.0000000   0.0000000   0.0000000   0.0000000   0.0000000   0.0000000
 NMagM=    0.0000000   0.0000000   0.0000000   0.0000000   0.0000000   0.0000000   2.7928460   2.7928460   2.7928460   2.7928460
 AtZNuc=   6.0000000   6.0000000   6.0000000   6.0000000   6.0000000   6.0000000   1.0000000   1.0000000   1.0000000   1.0000000

  Atom        11          12          13          14          15          16          17          18          19          20
 IAtWgt=          12           1           1          12           1          12          16           1          16          14
 AtmWgt=  12.0000000   1.0078250   1.0078250  12.0000000   1.0078250  12.0000000  15.9949146   1.0078250  15.9949146  14.0030740
 NucSpn=           0           1           1           0           1           0           0           1           0           2
 AtZEff=   0.0000000   0.0000000   0.0000000   0.0000000   0.0000000   0.0000000   0.0000000   0.0000000   0.0000000   0.0000000
 NQMom=    0.0000000   0.0000000   0.0000000   0.0000000   0.0000000   0.0000000   0.0000000   0.0000000   0.0000000   2.0440000
 NMagM=    0.0000000   2.7928460   2.7928460   0.0000000   2.7928460   0.0000000   0.0000000   2.7928460   0.0000000   0.4037610
 AtZNuc=   6.0000000   1.0000000   1.0000000   6.0000000   1.0000000   6.0000000   8.0000000   1.0000000   8.0000000   7.0000000

  Atom        21          22          23          24          25          26          27          28          29          30
 IAtWgt=           1          14           1          12          12           1           1           1          12           1
 AtmWgt=   1.0078250  14.0030740   1.0078250  12.0000000  12.0000000   1.0078250   1.0078250   1.0078250  12.0000000   1.0078250
 NucSpn=           1           2           1           0           0           1           1           1           0           1
 AtZEff=   0.0000000   0.0000000   0.0000000   0.0000000   0.0000000   0.0000000   0.0000000   0.0000000   0.0000000   0.0000000
 NQMom=    0.0000000   2.0440000   0.0000000   0.0000000   0.0000000   0.0000000   0.0000000   0.0000000   0.0000000   0.0000000
 NMagM=    2.7928460   0.4037610   2.7928460   0.0000000   0.0000000   2.7928460   2.7928460   2.7928460   0.0000000   2.7928460
 AtZNuc=   1.0000000   7.0000000   1.0000000   6.0000000   6.0000000   1.0000000   1.0000000   1.0000000   6.0000000   1.0000000

  Atom        31          32          33
 IAtWgt=           1           1          16
 AtmWgt=   1.0078250   1.0078250  15.9949146
 NucSpn=           1           1           0
 AtZEff=   0.0000000   0.0000000   0.0000000
 NQMom=    0.0000000   0.0000000   0.0000000
 NMagM=    2.7928460   2.7928460   0.0000000
 AtZNuc=   1.0000000   1.0000000   8.0000000
 Leave Link  101 at Sun Sep 29 12:28:07 2013, MaxMem= 17179869184 cpu:        32.9
 (Enter /system/software/linux-x86_64/gaussian/g09/D.01__pgi_12.10__atlas/l103.exe)

 GradGradGradGradGradGradGradGradGradGradGradGradGradGradGradGradGradGrad
 Berny optimization.
 Initialization pass.
                           ----------------------------
                           !    Initial Parameters    !
                           ! (Angstroms and Degrees)  !
 --------------------------                            --------------------------
 ! Name  Definition              Value          Derivative Info.                !
 --------------------------------------------------------------------------------
 ! R1    R(1,2)                  1.4014         estimate D2E/DX2                !
 ! R2    R(1,6)                  1.4014         estimate D2E/DX2                !
 ! R3    R(1,7)                  1.07           estimate D2E/DX2                !
 ! R4    R(2,3)                  1.4014         estimate D2E/DX2                !
 ! R5    R(2,8)                  1.07           estimate D2E/DX2                !
 ! R6    R(3,4)                  1.4014         estimate D2E/DX2                !
 ! R7    R(3,11)                 1.54           estimate D2E/DX2                !
 ! R8    R(4,5)                  1.4014         estimate D2E/DX2                !
 ! R9    R(4,9)                  1.07           estimate D2E/DX2                !
 ! R10   R(5,6)                  1.4014         estimate D2E/DX2                !
 ! R11   R(5,10)                 1.07           estimate D2E/DX2                !
 ! R12   R(6,17)                 1.43           estimate D2E/DX2                !
 ! R13   R(11,12)                1.07           estimate D2E/DX2                !
 ! R14   R(11,13)                1.07           estimate D2E/DX2                !
 ! R15   R(11,14)                1.54           estimate D2E/DX2                !
 ! R16   R(14,15)                1.07           estimate D2E/DX2                !
 ! R17   R(14,16)                1.54           estimate D2E/DX2                !
 ! R18   R(14,20)                1.47           estimate D2E/DX2                !
 ! R19   R(16,19)                1.2584         estimate D2E/DX2                !
 ! R20   R(16,22)                1.47           estimate D2E/DX2                !
 ! R21   R(17,18)                0.96           estimate D2E/DX2                !
 ! R22   R(20,21)                1.0            estimate D2E/DX2                !
 ! R23   R(20,24)                1.47           estimate D2E/DX2                !
 ! R24   R(22,23)                1.0            estimate D2E/DX2                !
 ! R25   R(22,29)                1.47           estimate D2E/DX2                !
 ! R26   R(24,25)                1.54           estimate D2E/DX2                !
 ! R27   R(24,33)                1.2584         estimate D2E/DX2                !
 ! R28   R(25,26)                1.07           estimate D2E/DX2                !
 ! R29   R(25,27)                1.07           estimate D2E/DX2                !
 ! R30   R(25,28)                1.07           estimate D2E/DX2                !
 ! R31   R(29,30)                1.07           estimate D2E/DX2                !
 ! R32   R(29,31)                1.07           estimate D2E/DX2                !
 ! R33   R(29,32)                1.07           estimate D2E/DX2                !
 ! A1    A(2,1,6)              120.0            estimate D2E/DX2                !
 ! A2    A(2,1,7)              120.0            estimate D2E/DX2                !
 ! A3    A(6,1,7)              120.0            estimate D2E/DX2                !
 ! A4    A(1,2,3)              120.0            estimate D2E/DX2                !
 ! A5    A(1,2,8)              120.0            estimate D2E/DX2                !
 ! A6    A(3,2,8)              120.0            estimate D2E/DX2                !
 ! A7    A(2,3,4)              120.0            estimate D2E/DX2                !
 ! A8    A(2,3,11)             120.0            estimate D2E/DX2                !
 ! A9    A(4,3,11)             120.0            estimate D2E/DX2                !
 ! A10   A(3,4,5)              120.0            estimate D2E/DX2                !
 ! A11   A(3,4,9)              120.0            estimate D2E/DX2                !
 ! A12   A(5,4,9)              120.0            estimate D2E/DX2                !
 ! A13   A(4,5,6)              120.0            estimate D2E/DX2                !
 ! A14   A(4,5,10)             120.0            estimate D2E/DX2                !
 ! A15   A(6,5,10)             120.0            estimate D2E/DX2                !
 ! A16   A(1,6,5)              120.0            estimate D2E/DX2                !
 ! A17   A(1,6,17)             120.0            estimate D2E/DX2                !
 ! A18   A(5,6,17)             120.0            estimate D2E/DX2                !
 ! A19   A(3,11,12)            109.4712         estimate D2E/DX2                !
 ! A20   A(3,11,13)            109.4712         estimate D2E/DX2                !
 ! A21   A(3,11,14)            109.4712         estimate D2E/DX2                !
 ! A22   A(12,11,13)           109.4712         estimate D2E/DX2                !
 ! A23   A(12,11,14)           109.4712         estimate D2E/DX2                !
 ! A24   A(13,11,14)           109.4712         estimate D2E/DX2                !
 ! A25   A(11,14,15)           109.4712         estimate D2E/DX2                !
 ! A26   A(11,14,16)           109.4712         estimate D2E/DX2                !
 ! A27   A(11,14,20)           109.4712         estimate D2E/DX2                !
 ! A28   A(15,14,16)           109.4712         estimate D2E/DX2                !
 ! A29   A(15,14,20)           109.4712         estimate D2E/DX2                !
 ! A30   A(16,14,20)           109.4712         estimate D2E/DX2                !
 ! A31   A(14,16,19)           120.0            estimate D2E/DX2                !
 ! A32   A(14,16,22)           120.0            estimate D2E/DX2                !
 ! A33   A(19,16,22)           120.0            estimate D2E/DX2                !
 ! A34   A(6,17,18)            109.4712         estimate D2E/DX2                !
 ! A35   A(14,20,21)           109.4712         estimate D2E/DX2                !
 ! A36   A(14,20,24)           109.4712         estimate D2E/DX2                !
 ! A37   A(21,20,24)           109.4712         estimate D2E/DX2                !
 ! A38   A(16,22,23)           109.4712         estimate D2E/DX2                !
 ! A39   A(16,22,29)           109.4712         estimate D2E/DX2                !
 ! A40   A(23,22,29)           109.4712         estimate D2E/DX2                !
 ! A41   A(20,24,25)           120.0            estimate D2E/DX2                !
 ! A42   A(20,24,33)           120.0            estimate D2E/DX2                !
 ! A43   A(25,24,33)           120.0            estimate D2E/DX2                !
 ! A44   A(24,25,26)           109.4712         estimate D2E/DX2                !
 ! A45   A(24,25,27)           109.4712         estimate D2E/DX2                !
 ! A46   A(24,25,28)           109.4712         estimate D2E/DX2                !
 ! A47   A(26,25,27)           109.4712         estimate D2E/DX2                !
 ! A48   A(26,25,28)           109.4712         estimate D2E/DX2                !
 ! A49   A(27,25,28)           109.4712         estimate D2E/DX2                !
 ! A50   A(22,29,30)           109.4712         estimate D2E/DX2                !
 ! A51   A(22,29,31)           109.4712         estimate D2E/DX2                !
 ! A52   A(22,29,32)           109.4712         estimate D2E/DX2                !
 ! A53   A(30,29,31)           109.4712         estimate D2E/DX2                !
 ! A54   A(30,29,32)           109.4712         estimate D2E/DX2                !
 ! A55   A(31,29,32)           109.4712         estimate D2E/DX2                !
 ! D1    D(6,1,2,3)              0.0001         estimate D2E/DX2                !
 ! D2    D(6,1,2,8)            180.0            estimate D2E/DX2                !
 ! D3    D(7,1,2,3)           -179.9998         estimate D2E/DX2                !
 ! D4    D(7,1,2,8)              0.0001         estimate D2E/DX2                !
 ! D5    D(2,1,6,5)             -0.0001         estimate D2E/DX2                !
 ! D6    D(2,1,6,17)           179.9999         estimate D2E/DX2                !
 ! D7    D(7,1,6,5)            179.9998         estimate D2E/DX2                !
 ! D8    D(7,1,6,17)            -0.0002         estimate D2E/DX2                !
 ! D9    D(1,2,3,4)             -0.0001         estimate D2E/DX2                !
 ! D10   D(1,2,3,11)           179.9999         estimate D2E/DX2                !
 ! D11   D(8,2,3,4)           -179.9999         estimate D2E/DX2                !
 ! D12   D(8,2,3,11)             0.0001         estimate D2E/DX2                !
 ! D13   D(2,3,4,5)              0.0            estimate D2E/DX2                !
 ! D14   D(2,3,4,9)            179.9999         estimate D2E/DX2                !
 ! D15   D(11,3,4,5)          -180.0            estimate D2E/DX2                !
 ! D16   D(11,3,4,9)            -0.0001         estimate D2E/DX2                !
 ! D17   D(2,3,11,12)           90.0            estimate D2E/DX2                !
 ! D18   D(2,3,11,13)         -150.0            estimate D2E/DX2                !
 ! D19   D(2,3,11,14)          -30.0            estimate D2E/DX2                !
 ! D20   D(4,3,11,12)          -90.0            estimate D2E/DX2                !
 ! D21   D(4,3,11,13)           30.0            estimate D2E/DX2                !
 ! D22   D(4,3,11,14)          150.0            estimate D2E/DX2                !
 ! D23   D(3,4,5,6)              0.0            estimate D2E/DX2                !
 ! D24   D(3,4,5,10)          -179.9999         estimate D2E/DX2                !
 ! D25   D(9,4,5,6)           -179.9999         estimate D2E/DX2                !
 ! D26   D(9,4,5,10)             0.0002         estimate D2E/DX2                !
 ! D27   D(4,5,6,1)              0.0001         estimate D2E/DX2                !
 ! D28   D(4,5,6,17)          -179.9999         estimate D2E/DX2                !
 ! D29   D(10,5,6,1)           179.9999         estimate D2E/DX2                !
 ! D30   D(10,5,6,17)           -0.0001         estimate D2E/DX2                !
 ! D31   D(1,6,17,18)          -90.0            estimate D2E/DX2                !
 ! D32   D(5,6,17,18)           90.0            estimate D2E/DX2                !
 ! D33   D(3,11,14,15)          60.0            estimate D2E/DX2                !
 ! D34   D(3,11,14,16)         180.0            estimate D2E/DX2                !
 ! D35   D(3,11,14,20)         -60.0            estimate D2E/DX2                !
 ! D36   D(12,11,14,15)        -60.0            estimate D2E/DX2                !
 ! D37   D(12,11,14,16)         60.0            estimate D2E/DX2                !
 ! D38   D(12,11,14,20)        180.0            estimate D2E/DX2                !
 ! D39   D(13,11,14,15)        180.0            estimate D2E/DX2                !
 ! D40   D(13,11,14,16)        -60.0            estimate D2E/DX2                !
 ! D41   D(13,11,14,20)         60.0            estimate D2E/DX2                !
 ! D42   D(11,14,16,19)         30.0            estimate D2E/DX2                !
 ! D43   D(11,14,16,22)       -150.0            estimate D2E/DX2                !
 ! D44   D(15,14,16,19)        150.0            estimate D2E/DX2                !
 ! D45   D(15,14,16,22)        -30.0            estimate D2E/DX2                !
 ! D46   D(20,14,16,19)        -90.0            estimate D2E/DX2                !
 ! D47   D(20,14,16,22)         90.0            estimate D2E/DX2                !
 ! D48   D(11,14,20,21)        -60.0            estimate D2E/DX2                !
 ! D49   D(11,14,20,24)        180.0            estimate D2E/DX2                !
 ! D50   D(15,14,20,21)        180.0            estimate D2E/DX2                !
 ! D51   D(15,14,20,24)         60.0            estimate D2E/DX2                !
 ! D52   D(16,14,20,21)         60.0            estimate D2E/DX2                !
 ! D53   D(16,14,20,24)        -60.0            estimate D2E/DX2                !
 ! D54   D(14,16,22,23)         90.0            estimate D2E/DX2                !
 ! D55   D(14,16,22,29)       -150.0            estimate D2E/DX2                !
 ! D56   D(19,16,22,23)        -90.0            estimate D2E/DX2                !
 ! D57   D(19,16,22,29)         30.0            estimate D2E/DX2                !
 ! D58   D(14,20,24,25)         90.0            estimate D2E/DX2                !
 ! D59   D(14,20,24,33)        -90.0            estimate D2E/DX2                !
 ! D60   D(21,20,24,25)        -30.0            estimate D2E/DX2                !
 ! D61   D(21,20,24,33)        150.0            estimate D2E/DX2                !
 ! D62   D(16,22,29,30)        180.0            estimate D2E/DX2                !
 ! D63   D(16,22,29,31)        -60.0            estimate D2E/DX2                !
 ! D64   D(16,22,29,32)         60.0            estimate D2E/DX2                !
 ! D65   D(23,22,29,30)        -60.0            estimate D2E/DX2                !
 ! D66   D(23,22,29,31)         60.0            estimate D2E/DX2                !
 ! D67   D(23,22,29,32)       -180.0            estimate D2E/DX2                !
 ! D68   D(20,24,25,26)        150.0            estimate D2E/DX2                !
 ! D69   D(20,24,25,27)        -90.0            estimate D2E/DX2                !
 ! D70   D(20,24,25,28)         30.0            estimate D2E/DX2                !
 ! D71   D(33,24,25,26)        -30.0            estimate D2E/DX2                !
 ! D72   D(33,24,25,27)         90.0            estimate D2E/DX2                !
 ! D73   D(33,24,25,28)       -150.0            estimate D2E/DX2                !
 --------------------------------------------------------------------------------
 Trust Radius=3.00D-01 FncErr=1.00D-07 GrdErr=1.00D-06
 Number of steps in this run=    171 maximum allowed number of steps=    198.
 GradGradGradGradGradGradGradGradGradGradGradGradGradGradGradGradGradGrad

 Leave Link  103 at Sun Sep 29 12:28:08 2013, MaxMem= 17179869184 cpu:         1.6
 (Enter /system/software/linux-x86_64/gaussian/g09/D.01__pgi_12.10__atlas/l202.exe)
                          Input orientation:                          
 ---------------------------------------------------------------------
 Center     Atomic      Atomic             Coordinates (Angstroms)
 Number     Number       Type             X           Y           Z
 ---------------------------------------------------------------------
      1          6           0       -5.759877   -1.367994   -0.420838
      2          6           0       -4.381316   -1.394723   -0.170283
      3          6           0       -3.697045   -0.204512    0.110953
      4          6           0       -4.391334    1.012428    0.141632
      5          6           0       -5.769895    1.039157   -0.108924
      6          6           0       -6.454166   -0.151054   -0.390160
      7          1           0       -6.282333   -2.276746   -0.635565
      8          1           0       -3.851211   -2.323884   -0.193706
      9          1           0       -3.868879    1.921180    0.356364
     10          1           0       -6.300000    1.968318   -0.085502
     11          6           0       -2.182144   -0.233885    0.386291
     12          1           0       -1.649949   -0.112421   -0.533989
     13          1           0       -1.925566    0.561580    1.054351
     14          6           0       -1.802484   -1.582949    1.024637
     15          1           0       -2.059062   -2.378413    0.356577
     16          6           0       -0.287583   -1.612321    1.299975
     17          8           0       -7.860860   -0.123779   -0.645832
     18          1           0       -8.012946   -0.002596   -1.585930
     19          8           0        0.326865   -0.543561    1.552513
     20          7           0       -2.533630   -1.749819    2.288947
     21          1           0       -2.293838   -1.006394    2.913302
     22          7           0        0.440693   -2.888832    1.267794
     23          1           0        0.775312   -3.058415    0.340825
     24          6           0       -2.171227   -3.037562    2.898278
     25          6           0       -0.982160   -3.120509    3.873387
     26          1           0       -1.157589   -3.900790    4.584222
     27          1           0       -0.086645   -3.330702    3.326786
     28          1           0       -0.876074   -2.187668    4.386664
     29          6           0        1.578915   -2.827125    2.195987
     30          1           0        2.109021   -3.756286    2.172564
     31          1           0        2.235354   -2.034502    1.903178
     32          1           0        1.220873   -2.645671    3.187844
     33          8           0       -2.832630   -4.072159    2.623095
 ---------------------------------------------------------------------
                    Distance matrix (angstroms):
                    1          2          3          4          5
     1  C    0.000000
     2  C    1.401400   0.000000
     3  C    2.427296   1.401400   0.000000
     4  C    2.802800   2.427296   1.401400   0.000000
     5  C    2.427296   2.802800   2.427296   1.401400   0.000000
     6  C    1.401400   2.427296   2.802800   2.427296   1.401400
     7  H    1.070000   2.146700   3.396345   3.872800   3.396345
     8  H    2.146700   1.070000   2.146700   3.396345   3.872800
     9  H    3.872800   3.396345   2.146700   1.070000   2.146700
    10  H    3.396345   3.872800   3.396345   2.146700   1.070000
    11  C    3.838989   2.548270   1.540000   2.548270   3.838989
    12  H    4.298926   3.039234   2.148263   3.039234   4.298926
    13  H    4.538874   3.370097   2.148263   2.667646   4.044769
    14  C    4.218597   2.848445   2.514809   3.770653   4.888839
    15  H    3.914250   2.576450   2.732978   4.121104   5.066237
    16  C    5.741681   4.355188   3.875582   5.007179   6.250687
    17  O    2.452106   3.734792   4.232800   3.734792   2.452106
    18  H    2.880637   4.138938   4.641894   4.138939   2.880637
    19  O    6.451529   5.085221   4.287762   5.164600   6.514280
    20  N    4.230532   3.096425   2.912931   3.961318   4.899142
    21  H    4.822932   3.743910   3.234991   4.019613   5.039951
    22  N    6.603900   5.249019   5.066037   6.311621   7.476353
    23  H    6.793110   5.442418   5.310328   6.580705   7.735122
    24  C    5.165500   4.123042   4.257167   5.378697   6.213961
    25  C    6.658698   5.557325   5.479922   6.529138   7.488928
    26  H    7.255807   6.267224   6.334149   7.371121   8.228127
    27  H    7.076896   5.867001   5.757571   6.894805   7.949786
    28  H    6.901845   5.803554   5.492949   6.373222   7.387300
    29  C    7.926834   6.570796   6.249898   7.389616   8.617759
    30  H    8.622599   7.293173   7.111661   8.313839   9.501514
    31  H    8.352784   6.963396   6.461756   7.503321   8.807948
    32  H    7.961527   6.650294   6.293841   7.359210   8.562562
    33  O    5.014660   4.167739   4.692202   5.868581   6.497462
                    6          7          8          9         10
     6  C    0.000000
     7  H    2.146700   0.000000
     8  H    3.396345   2.471400   0.000000
     9  H    3.396345   4.942800   4.280590   0.000000
    10  H    2.146700   4.280590   4.942800   2.471400   0.000000
    11  C    4.342800   4.693509   2.736837   2.736837   4.693509
    12  H    4.806524   5.114059   3.138775   3.138775   5.114058
    13  H    4.806524   5.467479   3.686686   2.472279   4.734327
    14  C    5.068542   4.827699   2.496122   4.122559   5.837084
    15  H    4.983542   4.339436   1.875522   4.664969   6.088930
    16  C    6.558857   6.334415   3.928975   5.118761   7.133701
    17  O    1.430000   2.669667   4.595886   4.595886   2.669667
    18  H    1.970203   3.011640   4.964545   4.964545   3.011639
    19  O    7.064731   7.174477   4.865711   5.010986   7.273786
    20  N    5.010416   4.783639   2.868647   4.358211   5.800698
    21  H    5.380781   5.487837   3.716812   4.193970   5.821604
    22  N    7.601534   7.014022   4.568981   6.522218   8.417854
    23  H    7.826394   7.167615   4.714867   6.809194   8.689640
    24  C    6.122852   5.474310   3.590549   5.825158   7.142026
    25  C    7.545751   7.009595   5.040566   6.791261   8.357535
    26  H    8.176719   7.493110   5.707085   7.689032   9.093797
    27  H    8.029394   7.429508   5.251619   7.121163   8.850373
    28  H    7.621086   7.379590   5.463495   6.487128   8.166484
    29  C    8.853243   8.373758   5.954003   7.457149   9.501514
    30  H    9.638123   8.971591   6.570796   8.442007  10.420248
    31  H    9.182295   8.891282   6.444140   7.436512   9.634816
    32  H    8.827879   8.429274   6.104462   7.401282   9.411016
    33  O    6.129461   5.073739   3.468190   6.490916   7.473053
                   11         12         13         14         15
    11  C    0.000000
    12  H    1.070000   0.000000
    13  H    1.070000   1.747303   0.000000
    14  C    1.540000   2.148263   2.148263   0.000000
    15  H    2.148263   2.468846   3.024610   1.070000   0.000000
    16  C    2.514809   2.732978   2.732978   1.540000   2.148263
    17  O    5.772800   6.211928   6.211928   6.451632   6.304686
    18  H    6.159660   6.450300   6.659247   6.919712   6.698252
    19  O    2.784079   2.906401   2.557918   2.427572   3.238764
    20  N    2.457987   3.380966   2.690081   1.470000   2.086720
    21  H    2.644813   3.619061   2.459648   2.034920   2.911082
    22  N    3.834718   3.914801   4.189282   2.606971   2.709173
    23  H    4.089814   3.914853   4.572551   3.047890   2.914846
    24  C    3.764412   4.539673   4.051448   2.400500   2.628174
    25  C    4.683204   5.377685   4.732310   3.339521   3.752116
    26  H    5.667321   6.386724   5.741300   4.296385   4.582932
    27  H    4.756879   5.263728   4.867797   3.361344   3.690450
    28  H    4.639620   5.396143   4.445684   3.539371   4.204455
    29  C    4.913803   5.024734   5.006799   3.788654   4.101176
    30  H    5.831995   5.893473   6.014337   4.619632   4.750710
    31  H    5.005742   4.972903   4.977289   4.156906   4.577363
    32  H    5.024533   5.339571   4.973764   3.866462   4.341137
    33  O    4.489852   5.200522   4.975465   3.132481   2.933306
                   16         17         18         19         20
    16  C    0.000000
    17  O    7.959677   0.000000
    18  H    8.402434   0.960000   0.000000
    19  O    1.258400   8.488096   8.927201   0.000000
    20  N    2.457987   6.295738   6.934722   3.190583   0.000000
    21  H    2.644813   6.666197   7.345672   2.988987   1.000000
    22  N    1.470000   8.956744   9.377532   2.365231   3.344652
    23  H    2.034920   9.174369   9.501784   2.827328   4.056686
    24  C    2.852017   7.309088   7.965225   3.777775   1.470000
    25  C    3.062600   8.759010   9.431727   3.706840   2.606971
    26  H    4.096374   9.303393  10.013122   4.760866   3.433431
    27  H    2.664802   9.300778   9.901379   3.329743   3.092577
    28  H    3.194526   8.852846   9.559360   3.490353   2.709173
    29  C    2.400500  10.222200  10.690401   2.682602   4.252323
    30  H    3.331921  10.978933  11.431127   3.725875   5.059017
    31  H    2.628174  10.586872  11.014998   2.447081   4.793023
    32  H    2.628174  10.175209  10.725585   2.809346   3.963187
    33  O    3.778718   7.180438   7.817475   4.855878   2.365231
                   21         22         23         24         25
    21  H    0.000000
    22  N    3.705257   0.000000
    23  H    4.499790   1.000000   0.000000
    24  C    2.034920   3.082649   3.901678   0.000000
    25  C    2.666785   2.977801   3.946081   1.540000   0.000000
    26  H    3.529952   3.818017   4.738367   2.148263   1.070000
    27  H    3.231884   2.170894   3.119787   2.148263   1.070000
    28  H    2.361410   3.457290   4.455793   2.148263   1.070000
    29  C    4.339103   1.470000   2.034920   3.821134   3.075524
    30  H    5.243640   2.086720   2.370879   4.400426   3.585025
    31  H    4.752992   2.086720   2.370879   4.627560   3.926007
    32  H    3.887903   2.086720   2.911082   3.426918   2.355587
    33  O    3.126249   3.735203   4.387901   1.258400   2.427572
                   26         27         28         29         30
    26  H    0.000000
    27  H    1.747303   0.000000
    28  H    1.747303   1.747303   0.000000
    29  C    3.787463   2.075183   3.351856   0.000000
    30  H    4.062969   2.516803   4.034054   1.070000   0.000000
    31  H    4.709893   3.016368   3.983986   1.070000   1.747303
    32  H    3.030227   1.482625   2.458479   1.070000   1.747303
    33  O    2.584792   2.930080   3.238764   4.603722   4.972189
                   31         32         33
    31  H    0.000000
    32  H    1.747303   0.000000
    33  O    5.509517   4.334131   0.000000
 Stoichiometry    C12H16N2O3
 Framework group  C1[X(C12H16N2O3)]
 Deg. of freedom    93
 Full point group                 C1      NOp   1
 Largest Abelian subgroup         C1      NOp   1
 Largest concise Abelian subgroup C1      NOp   1
                         Standard orientation:                         
 ---------------------------------------------------------------------
 Center     Atomic      Atomic             Coordinates (Angstroms)
 Number     Number       Type             X           Y           Z
 ---------------------------------------------------------------------
      1          6           0        3.153199    0.828045   -0.853639
      2          6           0        1.868109    0.269147   -0.843741
      3          6           0        1.599971   -0.857294   -0.054340
      4          6           0        2.616924   -1.424839    0.725161
      5          6           0        3.902014   -0.865942    0.715262
      6          6           0        4.170152    0.260500   -0.074138
      7          1           0        3.357928    1.688111   -1.456361
      8          1           0        1.091643    0.702481   -1.438907
      9          1           0        2.412194   -2.284901    1.327887
     10          1           0        4.678481   -1.299276    1.310427
     11          6           0        0.187783   -1.471467   -0.043462
     12          1           0        0.115791   -2.213841   -0.810663
     13          1           0        0.002701   -1.923358    0.908609
     14          6           0       -0.854409   -0.366791   -0.298658
     15          1           0       -0.669327    0.085100   -1.250730
     16          6           0       -2.266597   -0.980963   -0.287780
     17          8           0        5.481469    0.830803   -0.084240
     18          1           0        6.003761    0.419988   -0.777091
     19          8           0       -2.507374   -1.992462    0.421069
     20          7           0       -0.755504    0.653107    0.755347
     21          1           0       -0.928478    0.230779    1.645133
     22          7           0       -3.333330   -0.385637   -1.105439
     23          1           0       -3.336834   -0.811512   -2.010214
     24          6           0       -1.750324    1.707571    0.511750
     25          6           0       -3.161615    1.589276    1.116617
     26          1           0       -3.552251    2.567528    1.304572
     27          1           0       -3.801838    1.075349    0.430400
     28          1           0       -3.111328    1.042759    2.035143
     29          6           0       -4.632163   -0.608322   -0.454021
     30          1           0       -5.408629   -0.174989   -1.049187
     31          1           0       -4.804854   -1.659432   -0.352802
     32          1           0       -4.628414   -0.152635    0.514089
     33          8           0       -1.448718    2.706913   -0.191044
 ---------------------------------------------------------------------
 Rotational constants (GHZ):      1.0122394      0.2260335      0.2004449
 Leave Link  202 at Sun Sep 29 12:28:08 2013, MaxMem= 17179869184 cpu:         2.0
 (Enter /system/software/linux-x86_64/gaussian/g09/D.01__pgi_12.10__atlas/l301.exe)
 Standard basis: CC-pVTZ (5D, 7F)
 Ernie: Thresh=  0.10000D-02 Tol=  0.10000D-05 Strict=F.
 Ernie:  51 primitive shells out of 570 were deleted.
 There are   835 symmetry adapted cartesian basis functions of A   symmetry.
 There are   734 symmetry adapted basis functions of A   symmetry.
   734 basis functions,  1156 primitive gaussians,   835 cartesian basis functions
    63 alpha electrons       63 beta electrons
       nuclear repulsion energy      1199.5428875133 Hartrees.
 IExCor= 4235 DFT=T Ex+Corr=M06 ExCW=0 ScaHFX=  0.270000
 ScaDFX=  1.000000  1.000000  1.000000  1.000000 ScalE2=  1.000000  1.000000
 IRadAn=      5 IRanWt=     -1 IRanGd=            0 ICorTp=0 IEmpDi=  4
 NAtoms=   33 NActive=   33 NUniq=   33 SFac= 1.00D+00 NAtFMM=   60 NAOKFM=F Big=F
 Integral buffers will be    131072 words long.
 Raffenetti 2 integral format.
 Two-electron integral symmetry is turned on.
 Leave Link  301 at Sun Sep 29 12:28:09 2013, MaxMem= 17179869184 cpu:         8.7
 (Enter /system/software/linux-x86_64/gaussian/g09/D.01__pgi_12.10__atlas/l302.exe)
 NPDir=0 NMtPBC=     1 NCelOv=     1 NCel=       1 NClECP=     1 NCelD=      1
         NCelK=      1 NCelE2=     1 NClLst=     1 CellRange=     0.0.
 One-electron integrals computed using PRISM.
 NBasis=   734 RedAO= T EigKep=  3.41D-05  NBF=   734
 NBsUse=   734 1.00D-06 EigRej= -1.00D+00 NBFU=   734
 Precomputing XC quadrature grid using
 IXCGrd= 4 IRadAn=           5 IRanWt=          -1 IRanGd=           0 AccXCQ= 0.00D+00.
 Generated NRdTot=       0 NPtTot=           0 NUsed=           0 NTot=          32
 NSgBfM=   823   823   823   823   823 MxSgAt=    33 MxSgA2=    33.
 Leave Link  302 at Sun Sep 29 12:28:13 2013, MaxMem= 17179869184 cpu:        67.8
 (Enter /system/software/linux-x86_64/gaussian/g09/D.01__pgi_12.10__atlas/l303.exe)
 DipDrv:  MaxL=1.
 Leave Link  303 at Sun Sep 29 12:28:14 2013, MaxMem= 17179869184 cpu:         5.4
 (Enter /system/software/linux-x86_64/gaussian/g09/D.01__pgi_12.10__atlas/l401.exe)
 ExpMin= 1.03D-01 ExpMax= 1.53D+04 ExpMxC= 5.22D+02 IAcc=3 IRadAn=         5 AccDes= 0.00D+00
 Harris functional with IExCor= 1009 and IRadAn=       5 diagonalized for initial guess.
 HarFok:  IExCor= 1009 AccDes= 0.00D+00 IRadAn=         5 IDoV= 1 UseB2=F ITyADJ=14
 ICtDFT=  3500011 ScaDFX=  1.000000  1.000000  1.000000  1.000000
 FoFCou: FMM=F IPFlag=           0 FMFlag=      100000 FMFlg1=           0
         NFxFlg=           0 DoJE=T BraDBF=F KetDBF=T FulRan=T
         wScrn=  0.000000 ICntrl=     500 IOpCl=  0 I1Cent=   200000004 NGrid=           0
         NMat0=    1 NMatS0=      1 NMatT0=    0 NMatD0=    1 NMtDS0=    0 NMtDT0=    0
 Petite list used in FoFCou.
 Harris En= -801.648800208948    
 JPrj=0 DoOrth=F DoCkMO=F.
 Leave Link  401 at Sun Sep 29 12:28:21 2013, MaxMem= 17179869184 cpu:       148.7
 (Enter /system/software/linux-x86_64/gaussian/g09/D.01__pgi_12.10__atlas/l502.exe)
 Closed shell SCF:
 Using DIIS extrapolation, IDIIS=  1040.
 Integral symmetry usage will be decided dynamically.
 IVT=     2136341 IEndB=     2136341 NGot= 17179869184 MDV= 17178447544
 LenX= 17178447544 LenY= 17177749484
 Requested convergence on RMS density matrix=1.00D-08 within 128 cycles.
 Requested convergence on MAX density matrix=1.00D-06.
 Requested convergence on             energy=1.00D-06.
 No special actions if energy rises.
 Fock matrices will be formed incrementally for  20 cycles.
 Integral accuracy reduced to 1.0D-05 until final iterations.

 Cycle   1  Pass 0  IDiag  1:
 FoFJK:  IHMeth= 1 ICntrl=       0 DoSepK=F KAlg= 0 I1Cent=   0 FoldK=F
 IRaf= 770000000 NMat=   1 IRICut=       1 DoRegI=T DoRafI=F ISym2E= 0.
 FoFCou: FMM=F IPFlag=           0 FMFlag=      100000 FMFlg1=           0
         NFxFlg=           0 DoJE=F BraDBF=F KetDBF=F FulRan=T
         wScrn=  0.000000 ICntrl=       0 IOpCl=  0 I1Cent=           0 NGrid=           0
         NMat0=    1 NMatS0=      1 NMatT0=    0 NMatD0=    1 NMtDS0=    0 NMtDT0=    0
 Symmetry not used in FoFCou.
 E= -801.337644415613    
 DIIS: error= 1.56D-02 at cycle   1 NSaved=   1.
 NSaved= 1 IEnMin= 1 EnMin= -801.337644415613     IErMin= 1 ErrMin= 1.56D-02
 ErrMax= 1.56D-02  0.00D+00 EMaxC= 1.00D-01 BMatC= 5.03D-01 BMatP= 5.03D-01
 IDIUse=3 WtCom= 8.44D-01 WtEn= 1.56D-01
 Coeff-Com:  0.100D+01
 Coeff-En:   0.100D+01
 Coeff:      0.100D+01
 Gap=     0.305 Goal=   None    Shift=    0.000
 GapD=    0.305 DampG=1.000 DampE=0.500 DampFc=0.5000 IDamp=-1.
 Damping current iteration by 5.00D-01
 RMSDP=2.83D-03 MaxDP=3.17D-01              OVMax= 2.19D-01

 Cycle   2  Pass 0  IDiag  1:
 RMSU=  1.41D-03    CP:  1.01D+00
 E= -801.472448131930     Delta-E=       -0.134803716318 Rises=F Damp=T
 DIIS: error= 7.21D-03 at cycle   2 NSaved=   2.
 NSaved= 2 IEnMin= 2 EnMin= -801.472448131930     IErMin= 2 ErrMin= 7.21D-03
 ErrMax= 7.21D-03  0.00D+00 EMaxC= 1.00D-01 BMatC= 6.88D-02 BMatP= 5.03D-01
 IDIUse=3 WtCom= 9.28D-01 WtEn= 7.21D-02
 Coeff-Com:  0.193D+00 0.807D+00
 Coeff-En:   0.296D+00 0.704D+00
 Coeff:      0.200D+00 0.800D+00
 Gap=     0.239 Goal=   None    Shift=    0.000
 RMSDP=6.78D-04 MaxDP=3.61D-02 DE=-1.35D-01 OVMax= 1.79D-01

 Cycle   3  Pass 0  IDiag  1:
 RMSU=  6.42D-04    CP:  1.01D+00  8.47D-01
 E= -801.694555111169     Delta-E=       -0.222106979239 Rises=F Damp=F
 DIIS: error= 1.16D-02 at cycle   3 NSaved=   3.
 NSaved= 3 IEnMin= 3 EnMin= -801.694555111169     IErMin= 2 ErrMin= 7.21D-03
 ErrMax= 1.16D-02  0.00D+00 EMaxC= 1.00D-01 BMatC= 8.44D-02 BMatP= 6.88D-02
 IDIUse=2 WtCom= 0.00D+00 WtEn= 1.00D+00
 Coeff-En:   0.000D+00 0.000D+00 0.100D+01
 Coeff:      0.000D+00 0.000D+00 0.100D+01
 Gap=     0.196 Goal=   None    Shift=    0.000
 RMSDP=8.76D-04 MaxDP=5.29D-02 DE=-2.22D-01 OVMax= 2.06D-01

 Cycle   4  Pass 0  IDiag  1:
 RMSU=  7.53D-04    CP:  1.01D+00  9.62D-01  3.50D-01
 E= -801.399419715234     Delta-E=        0.295135395935 Rises=F Damp=F
 DIIS: error= 2.45D-02 at cycle   4 NSaved=   4.
 NSaved= 4 IEnMin= 3 EnMin= -801.694555111169     IErMin= 2 ErrMin= 7.21D-03
 ErrMax= 2.45D-02  0.00D+00 EMaxC= 1.00D-01 BMatC= 4.79D-01 BMatP= 6.88D-02
 IDIUse=2 WtCom= 0.00D+00 WtEn= 1.00D+00
 Coeff-En:   0.000D+00 0.000D+00 0.792D+00 0.208D+00
 Coeff:      0.000D+00 0.000D+00 0.792D+00 0.208D+00
 Gap=     0.213 Goal=   None    Shift=    0.000
 RMSDP=4.73D-04 MaxDP=3.08D-02 DE= 2.95D-01 OVMax= 1.03D-01

 Cycle   5  Pass 0  IDiag  1:
 RMSU=  8.18D-05    CP:  1.01D+00  8.24D-01  7.19D-01  5.34D-01
 E= -801.735822281027     Delta-E=       -0.336402565793 Rises=F Damp=F
 DIIS: error= 6.88D-03 at cycle   5 NSaved=   5.
 NSaved= 5 IEnMin= 5 EnMin= -801.735822281027     IErMin= 5 ErrMin= 6.88D-03
 ErrMax= 6.88D-03  0.00D+00 EMaxC= 1.00D-01 BMatC= 3.29D-02 BMatP= 6.88D-02
 IDIUse=3 WtCom= 9.31D-01 WtEn= 6.88D-02
 Coeff-Com: -0.411D-02 0.343D-01 0.310D+00-0.761D-01 0.736D+00
 Coeff-En:   0.000D+00 0.000D+00 0.321D+00 0.000D+00 0.679D+00
 Coeff:     -0.383D-02 0.320D-01 0.310D+00-0.708D-01 0.732D+00
 Gap=     0.202 Goal=   None    Shift=    0.000
 RMSDP=1.63D-04 MaxDP=9.42D-03 DE=-3.36D-01 OVMax= 3.29D-02

 Cycle   6  Pass 0  IDiag  1:
 RMSU=  2.78D-05    CP:  1.01D+00  8.28D-01  8.44D-01  3.51D-01  8.49D-01
 E= -801.761009430025     Delta-E=       -0.025187148997 Rises=F Damp=F
 DIIS: error= 3.56D-04 at cycle   6 NSaved=   6.
 NSaved= 6 IEnMin= 6 EnMin= -801.761009430025     IErMin= 6 ErrMin= 3.56D-04
 ErrMax= 3.56D-04  0.00D+00 EMaxC= 1.00D-01 BMatC= 1.07D-04 BMatP= 3.29D-02
 IDIUse=3 WtCom= 9.96D-01 WtEn= 3.56D-03
 Coeff-Com: -0.551D-02 0.184D-01 0.124D+00-0.564D-01 0.390D+00 0.530D+00
 Coeff-En:   0.000D+00 0.000D+00 0.000D+00 0.000D+00 0.000D+00 0.100D+01
 Coeff:     -0.549D-02 0.183D-01 0.123D+00-0.562D-01 0.388D+00 0.532D+00
 Gap=     0.202 Goal=   None    Shift=    0.000
 RMSDP=1.43D-05 MaxDP=7.72D-04 DE=-2.52D-02 OVMax= 5.16D-03

 Cycle   7  Pass 0  IDiag  1:
 RMSU=  1.09D-05    CP:  1.01D+00  8.31D-01  8.42D-01  3.53D-01  8.90D-01
                    CP:  7.47D-01
 E= -801.761101129576     Delta-E=       -0.000091699551 Rises=F Damp=F
 DIIS: error= 1.51D-04 at cycle   7 NSaved=   7.
 NSaved= 7 IEnMin= 7 EnMin= -801.761101129576     IErMin= 7 ErrMin= 1.51D-04
 ErrMax= 1.51D-04  0.00D+00 EMaxC= 1.00D-01 BMatC= 1.46D-05 BMatP= 1.07D-04
 IDIUse=3 WtCom= 9.98D-01 WtEn= 1.51D-03
 Coeff-Com: -0.105D-02 0.843D-03 0.182D-01-0.115D-01 0.699D-01 0.278D+00
 Coeff-Com:  0.645D+00
 Coeff-En:   0.000D+00 0.000D+00 0.000D+00 0.000D+00 0.000D+00 0.132D+00
 Coeff-En:   0.868D+00
 Coeff:     -0.105D-02 0.841D-03 0.182D-01-0.115D-01 0.698D-01 0.278D+00
 Coeff:      0.646D+00
 Gap=     0.202 Goal=   None    Shift=    0.000
 RMSDP=7.00D-06 MaxDP=9.02D-04 DE=-9.17D-05 OVMax= 1.72D-03

 Initial convergence to 1.0D-05 achieved.  Increase integral accuracy.
 Cycle   8  Pass 1  IDiag  1:
 E= -801.761174290834     Delta-E=       -0.000073161259 Rises=F Damp=F
 DIIS: error= 1.43D-04 at cycle   1 NSaved=   1.
 NSaved= 1 IEnMin= 1 EnMin= -801.761174290834     IErMin= 1 ErrMin= 1.43D-04
 ErrMax= 1.43D-04  0.00D+00 EMaxC= 1.00D-01 BMatC= 1.66D-05 BMatP= 1.66D-05
 IDIUse=3 WtCom= 9.99D-01 WtEn= 1.43D-03
 Coeff-Com:  0.100D+01
 Coeff-En:   0.100D+01
 Coeff:      0.100D+01
 Gap=     0.202 Goal=   None    Shift=    0.000
 RMSDP=7.00D-06 MaxDP=9.02D-04 DE=-7.32D-05 OVMax= 8.55D-04

 Cycle   9  Pass 1  IDiag  1:
 RMSU=  1.75D-04    CP:  9.98D-01
 E= -801.761181753030     Delta-E=       -0.000007462196 Rises=F Damp=F
 DIIS: error= 5.08D-05 at cycle   2 NSaved=   2.
 NSaved= 2 IEnMin= 2 EnMin= -801.761181753030     IErMin= 2 ErrMin= 5.08D-05
 ErrMax= 5.08D-05  0.00D+00 EMaxC= 1.00D-01 BMatC= 5.26D-06 BMatP= 1.66D-05
 IDIUse=1 WtCom= 1.00D+00 WtEn= 0.00D+00
 Coeff-Com:  0.296D+00 0.704D+00
 Coeff:      0.296D+00 0.704D+00
 Gap=     0.202 Goal=   None    Shift=    0.000
 RMSDP=6.08D-06 MaxDP=6.39D-04 DE=-7.46D-06 OVMax= 1.08D-03

 Cycle  10  Pass 1  IDiag  1:
 RMSU=  5.87D-06    CP:  9.99D-01  1.01D+00
 E= -801.761182328756     Delta-E=       -0.000000575726 Rises=F Damp=F
 DIIS: error= 5.29D-05 at cycle   3 NSaved=   3.
 NSaved= 3 IEnMin= 3 EnMin= -801.761182328756     IErMin= 2 ErrMin= 5.08D-05
 ErrMax= 5.29D-05  0.00D+00 EMaxC= 1.00D-01 BMatC= 4.51D-06 BMatP= 5.26D-06
 IDIUse=1 WtCom= 1.00D+00 WtEn= 0.00D+00
 Coeff-Com:  0.294D-02 0.480D+00 0.517D+00
 Coeff:      0.294D-02 0.480D+00 0.517D+00
 Gap=     0.202 Goal=   None    Shift=    0.000
 RMSDP=3.05D-06 MaxDP=3.40D-04 DE=-5.76D-07 OVMax= 6.60D-04

 Cycle  11  Pass 1  IDiag  1:
 RMSU=  9.55D-07    CP:  9.99D-01  1.01D+00  5.49D-01
 E= -801.761186314715     Delta-E=       -0.000003985959 Rises=F Damp=F
 DIIS: error= 1.30D-05 at cycle   4 NSaved=   4.
 NSaved= 4 IEnMin= 4 EnMin= -801.761186314715     IErMin= 4 ErrMin= 1.30D-05
 ErrMax= 1.30D-05  0.00D+00 EMaxC= 1.00D-01 BMatC= 1.81D-07 BMatP= 4.51D-06
 IDIUse=1 WtCom= 1.00D+00 WtEn= 0.00D+00
 Coeff-Com: -0.432D-02 0.297D+00 0.336D+00 0.371D+00
 Coeff:     -0.432D-02 0.297D+00 0.336D+00 0.371D+00
 Gap=     0.202 Goal=   None    Shift=    0.000
 RMSDP=4.27D-07 MaxDP=2.33D-05 DE=-3.99D-06 OVMax= 8.66D-05

 Cycle  12  Pass 1  IDiag  1:
 RMSU=  3.48D-07    CP:  9.99D-01  1.01D+00  5.50D-01  7.45D-01
 E= -801.761186459704     Delta-E=       -0.000000144989 Rises=F Damp=F
 DIIS: error= 1.38D-06 at cycle   5 NSaved=   5.
 NSaved= 5 IEnMin= 5 EnMin= -801.761186459704     IErMin= 5 ErrMin= 1.38D-06
 ErrMax= 1.38D-06  0.00D+00 EMaxC= 1.00D-01 BMatC= 2.22D-09 BMatP= 1.81D-07
 IDIUse=1 WtCom= 1.00D+00 WtEn= 0.00D+00
 Coeff-Com: -0.203D-02 0.106D+00 0.121D+00 0.160D+00 0.615D+00
 Coeff:     -0.203D-02 0.106D+00 0.121D+00 0.160D+00 0.615D+00
 Gap=     0.202 Goal=   None    Shift=    0.000
 RMSDP=8.13D-08 MaxDP=4.46D-06 DE=-1.45D-07 OVMax= 1.20D-05

 Cycle  13  Pass 1  IDiag  1:
 RMSU=  7.09D-08    CP:  9.99D-01  1.01D+00  5.53D-01  7.79D-01  1.00D+00
 E= -801.761186460913     Delta-E=       -0.000000001208 Rises=F Damp=F
 DIIS: error= 6.95D-07 at cycle   6 NSaved=   6.
 NSaved= 6 IEnMin= 6 EnMin= -801.761186460913     IErMin= 6 ErrMin= 6.95D-07
 ErrMax= 6.95D-07  0.00D+00 EMaxC= 1.00D-01 BMatC= 7.78D-10 BMatP= 2.22D-09
 IDIUse=1 WtCom= 1.00D+00 WtEn= 0.00D+00
 Coeff-Com: -0.358D-03 0.556D-02 0.754D-02 0.232D-01 0.383D+00 0.581D+00
 Coeff:     -0.358D-03 0.556D-02 0.754D-02 0.232D-01 0.383D+00 0.581D+00
 Gap=     0.202 Goal=   None    Shift=    0.000
 RMSDP=4.40D-08 MaxDP=2.14D-06 DE=-1.21D-09 OVMax= 1.07D-05

 Cycle  14  Pass 1  IDiag  1:
 RMSU=  3.62D-08    CP:  9.99D-01  1.01D+00  5.53D-01  7.93D-01  1.05D+00
                    CP:  8.47D-01
 E= -801.761186461433     Delta-E=       -0.000000000520 Rises=F Damp=F
 DIIS: error= 2.93D-07 at cycle   7 NSaved=   7.
 NSaved= 7 IEnMin= 7 EnMin= -801.761186461433     IErMin= 7 ErrMin= 2.93D-07
 ErrMax= 2.93D-07  0.00D+00 EMaxC= 1.00D-01 BMatC= 1.15D-10 BMatP= 7.78D-10
 IDIUse=1 WtCom= 1.00D+00 WtEn= 0.00D+00
 Coeff-Com:  0.343D-04-0.992D-02-0.106D-01-0.638D-02 0.156D+00 0.356D+00
 Coeff-Com:  0.515D+00
 Coeff:      0.343D-04-0.992D-02-0.106D-01-0.638D-02 0.156D+00 0.356D+00
 Coeff:      0.515D+00
 Gap=     0.202 Goal=   None    Shift=    0.000
 RMSDP=1.54D-08 MaxDP=9.90D-07 DE=-5.20D-10 OVMax= 3.31D-06

 Cycle  15  Pass 1  IDiag  1:
 RMSU=  1.19D-08    CP:  9.99D-01  1.01D+00  5.53D-01  7.98D-01  1.07D+00
                    CP:  9.13D-01  8.92D-01
 E= -801.761186461585     Delta-E=       -0.000000000152 Rises=F Damp=F
 DIIS: error= 5.42D-08 at cycle   8 NSaved=   8.
 NSaved= 8 IEnMin= 8 EnMin= -801.761186461585     IErMin= 8 ErrMin= 5.42D-08
 ErrMax= 5.42D-08  0.00D+00 EMaxC= 1.00D-01 BMatC= 4.82D-12 BMatP= 1.15D-10
 IDIUse=1 WtCom= 1.00D+00 WtEn= 0.00D+00
 Coeff-Com:  0.646D-04-0.502D-02-0.553D-02-0.602D-02 0.140D-01 0.770D-01
 Coeff-Com:  0.208D+00 0.718D+00
 Coeff:      0.646D-04-0.502D-02-0.553D-02-0.602D-02 0.140D-01 0.770D-01
 Coeff:      0.208D+00 0.718D+00
 Gap=     0.202 Goal=   None    Shift=    0.000
 RMSDP=4.99D-09 MaxDP=3.97D-07 DE=-1.52D-10 OVMax= 4.44D-07

 SCF Done:  E(RM06) =  -801.761186462     A.U. after   15 cycles
            NFock= 15  Conv=0.50D-08     -V/T= 2.0078
 KE= 7.955307725096D+02 PE=-4.268651545067D+03 EE= 1.471816698583D+03
 Leave Link  502 at Sun Sep 29 12:37:57 2013, MaxMem= 17179869184 cpu:     13798.8
 (Enter /system/software/linux-x86_64/gaussian/g09/D.01__pgi_12.10__atlas/l601.exe)
 Copying SCF densities to generalized density rwf, IOpCl= 0 IROHF=0.

 **********************************************************************

            Population analysis using the SCF density.

 **********************************************************************

 Orbital symmetries:
       Occupied  (A) (A) (A) (A) (A) (A) (A) (A) (A) (A) (A) (A)
                 (A) (A) (A) (A) (A) (A) (A) (A) (A) (A) (A) (A)
                 (A) (A) (A) (A) (A) (A) (A) (A) (A) (A) (A) (A)
                 (A) (A) (A) (A) (A) (A) (A) (A) (A) (A) (A) (A)
                 (A) (A) (A) (A) (A) (A) (A) (A) (A) (A) (A) (A)
                 (A) (A) (A)
       Virtual   (A) (A) (A) (A) (A) (A) (A) (A) (A) (A) (A) (A)
                 (A) (A) (A) (A) (A) (A) (A) (A) (A) (A) (A) (A)
                 (A) (A) (A) (A) (A) (A) (A) (A) (A) (A) (A) (A)
                 (A) (A) (A) (A) (A) (A) (A) (A) (A) (A) (A) (A)
                 (A) (A) (A) (A) (A) (A) (A) (A) (A) (A) (A) (A)
                 (A) (A) (A) (A) (A) (A) (A) (A) (A) (A) (A) (A)
                 (A) (A) (A) (A) (A) (A) (A) (A) (A) (A) (A) (A)
                 (A) (A) (A) (A) (A) (A) (A) (A) (A) (A) (A) (A)
                 (A) (A) (A) (A) (A) (A) (A) (A) (A) (A) (A) (A)
                 (A) (A) (A) (A) (A) (A) (A) (A) (A) (A) (A) (A)
                 (A) (A) (A) (A) (A) (A) (A) (A) (A) (A) (A) (A)
                 (A) (A) (A) (A) (A) (A) (A) (A) (A) (A) (A) (A)
                 (A) (A) (A) (A) (A) (A) (A) (A) (A) (A) (A) (A)
                 (A) (A) (A) (A) (A) (A) (A) (A) (A) (A) (A) (A)
                 (A) (A) (A) (A) (A) (A) (A) (A) (A) (A) (A) (A)
                 (A) (A) (A) (A) (A) (A) (A) (A) (A) (A) (A) (A)
                 (A) (A) (A) (A) (A) (A) (A) (A) (A) (A) (A) (A)
                 (A) (A) (A) (A) (A) (A) (A) (A) (A) (A) (A) (A)
                 (A) (A) (A) (A) (A) (A) (A) (A) (A) (A) (A) (A)
                 (A) (A) (A) (A) (A) (A) (A) (A) (A) (A) (A) (A)
                 (A) (A) (A) (A) (A) (A) (A) (A) (A) (A) (A) (A)
                 (A) (A) (A) (A) (A) (A) (A) (A) (A) (A) (A) (A)
                 (A) (A) (A) (A) (A) (A) (A) (A) (A) (A) (A) (A)
                 (A) (A) (A) (A) (A) (A) (A) (A) (A) (A) (A) (A)
                 (A) (A) (A) (A) (A) (A) (A) (A) (A) (A) (A) (A)
                 (A) (A) (A) (A) (A) (A) (A) (A) (A) (A) (A) (A)
                 (A) (A) (A) (A) (A) (A) (A) (A) (A) (A) (A) (A)
                 (A) (A) (A) (A) (A) (A) (A) (A) (A) (A) (A) (A)
                 (A) (A) (A) (A) (A) (A) (A) (A) (A) (A) (A) (A)
                 (A) (A) (A) (A) (A) (A) (A) (A) (A) (A) (A) (A)
                 (A) (A) (A) (A) (A) (A) (A) (A) (A) (A) (A) (A)
                 (A) (A) (A) (A) (A) (A) (A) (A) (A) (A) (A) (A)
                 (A) (A) (A) (A) (A) (A) (A) (A) (A) (A) (A) (A)
                 (A) (A) (A) (A) (A) (A) (A) (A) (A) (A) (A) (A)
                 (A) (A) (A) (A) (A) (A) (A) (A) (A) (A) (A) (A)
                 (A) (A) (A) (A) (A) (A) (A) (A) (A) (A) (A) (A)
                 (A) (A) (A) (A) (A) (A) (A) (A) (A) (A) (A) (A)
                 (A) (A) (A) (A) (A) (A) (A) (A) (A) (A) (A) (A)
                 (A) (A) (A) (A) (A) (A) (A) (A) (A) (A) (A) (A)
                 (A) (A) (A) (A) (A) (A) (A) (A) (A) (A) (A) (A)
                 (A) (A) (A) (A) (A) (A) (A) (A) (A) (A) (A) (A)
                 (A) (A) (A) (A) (A) (A) (A) (A) (A) (A) (A) (A)
                 (A) (A) (A) (A) (A) (A) (A) (A) (A) (A) (A) (A)
                 (A) (A) (A) (A) (A) (A) (A) (A) (A) (A) (A) (A)
                 (A) (A) (A) (A) (A) (A) (A) (A) (A) (A) (A) (A)
                 (A) (A) (A) (A) (A) (A) (A) (A) (A) (A) (A) (A)
                 (A) (A) (A) (A) (A) (A) (A) (A) (A) (A) (A) (A)
                 (A) (A) (A) (A) (A) (A) (A) (A) (A) (A) (A) (A)
                 (A) (A) (A) (A) (A) (A) (A) (A) (A) (A) (A) (A)
                 (A) (A) (A) (A) (A) (A) (A) (A) (A) (A) (A) (A)
                 (A) (A) (A) (A) (A) (A) (A) (A) (A) (A) (A) (A)
                 (A) (A) (A) (A) (A) (A) (A) (A) (A) (A) (A) (A)
                 (A) (A) (A) (A) (A) (A) (A) (A) (A) (A) (A) (A)
                 (A) (A) (A) (A) (A) (A) (A) (A) (A) (A) (A) (A)
                 (A) (A) (A) (A) (A) (A) (A) (A) (A) (A) (A) (A)
                 (A) (A) (A) (A) (A) (A) (A) (A) (A) (A) (A)
 The electronic state is 1-A.
 Alpha  occ. eigenvalues --  -19.22857 -19.22483 -19.20854 -14.42165 -14.41890
 Alpha  occ. eigenvalues --  -10.37927 -10.37034 -10.30917 -10.30123 -10.26895
 Alpha  occ. eigenvalues --  -10.25590 -10.25485 -10.24546 -10.24517 -10.24376
 Alpha  occ. eigenvalues --  -10.24315 -10.24215  -1.07388  -1.05011  -1.04885
 Alpha  occ. eigenvalues --   -0.94931  -0.93784  -0.86603  -0.80471  -0.76447
 Alpha  occ. eigenvalues --   -0.75890  -0.74191  -0.71615  -0.67131  -0.62793
 Alpha  occ. eigenvalues --   -0.60369  -0.59026  -0.58873  -0.55686  -0.54455
 Alpha  occ. eigenvalues --   -0.51465  -0.50455  -0.49451  -0.48268  -0.48096
 Alpha  occ. eigenvalues --   -0.46974  -0.46432  -0.45850  -0.44976  -0.44531
 Alpha  occ. eigenvalues --   -0.43431  -0.43165  -0.41808  -0.41519  -0.40701
 Alpha  occ. eigenvalues --   -0.39630  -0.39175  -0.36539  -0.36347  -0.35854
 Alpha  occ. eigenvalues --   -0.35433  -0.32752  -0.31071  -0.28917  -0.28129
 Alpha  occ. eigenvalues --   -0.27586  -0.26394  -0.24797
 Alpha virt. eigenvalues --   -0.04580  -0.02454  -0.01012  -0.00154   0.01923
 Alpha virt. eigenvalues --    0.03322   0.03600   0.04806   0.05930   0.06073
 Alpha virt. eigenvalues --    0.07498   0.08035   0.08794   0.09103   0.09651
 Alpha virt. eigenvalues --    0.10272   0.11707   0.12304   0.14063   0.14617
 Alpha virt. eigenvalues --    0.15294   0.16461   0.16931   0.18323   0.19052
 Alpha virt. eigenvalues --    0.19528   0.19790   0.20247   0.22564   0.23514
 Alpha virt. eigenvalues --    0.24004   0.24688   0.25596   0.26550   0.27085
 Alpha virt. eigenvalues --    0.27521   0.27934   0.28603   0.29538   0.30132
 Alpha virt. eigenvalues --    0.30383   0.31623   0.32193   0.32624   0.33018
 Alpha virt. eigenvalues --    0.33654   0.34315   0.34907   0.35324   0.35528
 Alpha virt. eigenvalues --    0.36313   0.36624   0.37292   0.37474   0.38391
 Alpha virt. eigenvalues --    0.38741   0.39047   0.39413   0.39591   0.40003
 Alpha virt. eigenvalues --    0.40812   0.41224   0.41481   0.41813   0.42405
 Alpha virt. eigenvalues --    0.42691   0.43262   0.44131   0.44258   0.44756
 Alpha virt. eigenvalues --    0.45266   0.45740   0.45814   0.46178   0.46982
 Alpha virt. eigenvalues --    0.47696   0.48737   0.49113   0.49837   0.50259
 Alpha virt. eigenvalues --    0.50551   0.51655   0.52146   0.52651   0.53292
 Alpha virt. eigenvalues --    0.53439   0.54206   0.55259   0.56521   0.57907
 Alpha virt. eigenvalues --    0.58021   0.58376   0.58797   0.59328   0.60903
 Alpha virt. eigenvalues --    0.61568   0.63355   0.64299   0.64847   0.65335
 Alpha virt. eigenvalues --    0.66265   0.66867   0.67223   0.68868   0.69787
 Alpha virt. eigenvalues --    0.70486   0.70999   0.72146   0.73161   0.73276
 Alpha virt. eigenvalues --    0.74010   0.74864   0.76190   0.77025   0.77333
 Alpha virt. eigenvalues --    0.78490   0.79342   0.79581   0.80541   0.80828
 Alpha virt. eigenvalues --    0.81301   0.81431   0.83012   0.83128   0.84852
 Alpha virt. eigenvalues --    0.85537   0.86246   0.88076   0.88506   0.88970
 Alpha virt. eigenvalues --    0.89026   0.91048   0.91763   0.92664   0.92962
 Alpha virt. eigenvalues --    0.93095   0.94041   0.95489   0.95714   0.97279
 Alpha virt. eigenvalues --    0.97703   0.98352   0.99019   0.99998   1.00730
 Alpha virt. eigenvalues --    1.01287   1.02608   1.03356   1.03964   1.04995
 Alpha virt. eigenvalues --    1.05091   1.06426   1.06766   1.07664   1.08419
 Alpha virt. eigenvalues --    1.08547   1.08969   1.09894   1.10876   1.12000
 Alpha virt. eigenvalues --    1.13050   1.14330   1.14721   1.15933   1.15983
 Alpha virt. eigenvalues --    1.16683   1.17810   1.18611   1.19320   1.19616
 Alpha virt. eigenvalues --    1.20195   1.20780   1.21305   1.22495   1.22919
 Alpha virt. eigenvalues --    1.23495   1.24036   1.24574   1.25046   1.26054
 Alpha virt. eigenvalues --    1.26395   1.27583   1.28084   1.29750   1.30167
 Alpha virt. eigenvalues --    1.31101   1.31690   1.32249   1.33256   1.33917
 Alpha virt. eigenvalues --    1.34603   1.34923   1.35362   1.36540   1.37586
 Alpha virt. eigenvalues --    1.37692   1.38518   1.39105   1.40794   1.41187
 Alpha virt. eigenvalues --    1.41485   1.42598   1.44101   1.45155   1.46715
 Alpha virt. eigenvalues --    1.48037   1.49933   1.50616   1.51137   1.51764
 Alpha virt. eigenvalues --    1.52609   1.54423   1.54734   1.55398   1.56757
 Alpha virt. eigenvalues --    1.58790   1.59729   1.60855   1.61223   1.63480
 Alpha virt. eigenvalues --    1.64576   1.64962   1.66904   1.67563   1.68288
 Alpha virt. eigenvalues --    1.70379   1.72505   1.72961   1.75670   1.75925
 Alpha virt. eigenvalues --    1.77556   1.80133   1.82269   1.83718   1.84505
 Alpha virt. eigenvalues --    1.86362   1.87024   1.87716   1.90020   1.92033
 Alpha virt. eigenvalues --    1.93469   1.94318   1.97480   1.99008   2.01383
 Alpha virt. eigenvalues --    2.02271   2.05151   2.06929   2.07486   2.08921
 Alpha virt. eigenvalues --    2.12174   2.13099   2.13547   2.16483   2.17413
 Alpha virt. eigenvalues --    2.19807   2.21057   2.21569   2.21721   2.22210
 Alpha virt. eigenvalues --    2.23976   2.25006   2.25946   2.27512   2.31353
 Alpha virt. eigenvalues --    2.31431   2.32935   2.33454   2.34679   2.35891
 Alpha virt. eigenvalues --    2.36768   2.37702   2.39007   2.40723   2.40889
 Alpha virt. eigenvalues --    2.42903   2.43263   2.43959   2.44906   2.45893
 Alpha virt. eigenvalues --    2.47282   2.48320   2.49733   2.50888   2.51612
 Alpha virt. eigenvalues --    2.52852   2.53186   2.54364   2.56403   2.57148
 Alpha virt. eigenvalues --    2.58419   2.58648   2.59728   2.60410   2.61228
 Alpha virt. eigenvalues --    2.62384   2.63108   2.63818   2.64950   2.65866
 Alpha virt. eigenvalues --    2.67201   2.67877   2.68421   2.69620   2.70324
 Alpha virt. eigenvalues --    2.71037   2.71501   2.71766   2.72801   2.73157
 Alpha virt. eigenvalues --    2.73480   2.74485   2.75777   2.76179   2.76684
 Alpha virt. eigenvalues --    2.77999   2.79444   2.80530   2.81133   2.81665
 Alpha virt. eigenvalues --    2.83808   2.84020   2.85221   2.86116   2.86262
 Alpha virt. eigenvalues --    2.86661   2.87430   2.88079   2.88736   2.90441
 Alpha virt. eigenvalues --    2.91574   2.92119   2.92664   2.92925   2.94536
 Alpha virt. eigenvalues --    2.94940   2.96086   2.96401   2.97127   2.97935
 Alpha virt. eigenvalues --    2.98529   2.99367   2.99779   3.00879   3.00936
 Alpha virt. eigenvalues --    3.01541   3.01937   3.02386   3.03282   3.04781
 Alpha virt. eigenvalues --    3.05185   3.05390   3.05659   3.06049   3.06317
 Alpha virt. eigenvalues --    3.07055   3.08507   3.09149   3.09513   3.10795
 Alpha virt. eigenvalues --    3.11180   3.12134   3.12391   3.13877   3.14351
 Alpha virt. eigenvalues --    3.14845   3.15633   3.16485   3.17356   3.18357
 Alpha virt. eigenvalues --    3.19260   3.19627   3.20549   3.22151   3.22292
 Alpha virt. eigenvalues --    3.23157   3.23959   3.25081   3.26329   3.26446
 Alpha virt. eigenvalues --    3.27453   3.28143   3.28699   3.29580   3.29982
 Alpha virt. eigenvalues --    3.31938   3.32088   3.32764   3.33249   3.34017
 Alpha virt. eigenvalues --    3.34735   3.34888   3.35967   3.36064   3.37518
 Alpha virt. eigenvalues --    3.38445   3.39238   3.39704   3.40453   3.41546
 Alpha virt. eigenvalues --    3.42530   3.43612   3.43943   3.44719   3.45011
 Alpha virt. eigenvalues --    3.47074   3.47409   3.48565   3.49783   3.50170
 Alpha virt. eigenvalues --    3.51256   3.52306   3.53111   3.53995   3.55375
 Alpha virt. eigenvalues --    3.56804   3.57084   3.58039   3.59484   3.60452
 Alpha virt. eigenvalues --    3.60929   3.62267   3.62877   3.63464   3.64350
 Alpha virt. eigenvalues --    3.64499   3.66590   3.67317   3.67947   3.68705
 Alpha virt. eigenvalues --    3.68858   3.71128   3.71819   3.72689   3.73342
 Alpha virt. eigenvalues --    3.73851   3.74239   3.75286   3.75779   3.76808
 Alpha virt. eigenvalues --    3.77293   3.78311   3.79453   3.79895   3.81901
 Alpha virt. eigenvalues --    3.82161   3.82712   3.83406   3.84028   3.84905
 Alpha virt. eigenvalues --    3.85654   3.86041   3.87013   3.87892   3.88157
 Alpha virt. eigenvalues --    3.89197   3.90723   3.91409   3.92767   3.93055
 Alpha virt. eigenvalues --    3.93720   3.95072   3.95373   3.96441   3.96995
 Alpha virt. eigenvalues --    3.98559   3.99434   3.99714   3.99992   4.02041
 Alpha virt. eigenvalues --    4.02452   4.03100   4.05085   4.05561   4.05949
 Alpha virt. eigenvalues --    4.06545   4.07458   4.08380   4.08790   4.10564
 Alpha virt. eigenvalues --    4.11672   4.12401   4.12976   4.14121   4.15200
 Alpha virt. eigenvalues --    4.15847   4.16408   4.17532   4.17777   4.19449
 Alpha virt. eigenvalues --    4.20472   4.21173   4.23018   4.23392   4.24325
 Alpha virt. eigenvalues --    4.24592   4.25316   4.25798   4.26085   4.28024
 Alpha virt. eigenvalues --    4.28566   4.30137   4.31072   4.31773   4.32332
 Alpha virt. eigenvalues --    4.32889   4.33278   4.34790   4.35570   4.36413
 Alpha virt. eigenvalues --    4.38412   4.40500   4.40596   4.41976   4.45197
 Alpha virt. eigenvalues --    4.45312   4.45860   4.47512   4.49419   4.50866
 Alpha virt. eigenvalues --    4.51471   4.52955   4.54426   4.56365   4.58932
 Alpha virt. eigenvalues --    4.60422   4.61272   4.62806   4.64345   4.64930
 Alpha virt. eigenvalues --    4.66227   4.66371   4.67580   4.68920   4.69955
 Alpha virt. eigenvalues --    4.71606   4.73796   4.74778   4.75620   4.77415
 Alpha virt. eigenvalues --    4.77797   4.79248   4.79619   4.81315   4.83555
 Alpha virt. eigenvalues --    4.85033   4.86370   4.87290   4.87787   4.89201
 Alpha virt. eigenvalues --    4.91266   4.92132   4.92282   4.93461   4.94913
 Alpha virt. eigenvalues --    4.95839   4.97006   4.98660   4.99531   5.00336
 Alpha virt. eigenvalues --    5.01764   5.02829   5.03143   5.04411   5.05978
 Alpha virt. eigenvalues --    5.07236   5.09013   5.10586   5.12426   5.13561
 Alpha virt. eigenvalues --    5.13887   5.15483   5.16506   5.17353   5.17936
 Alpha virt. eigenvalues --    5.19263   5.20823   5.21192   5.21619   5.22190
 Alpha virt. eigenvalues --    5.23744   5.26300   5.27654   5.27942   5.29505
 Alpha virt. eigenvalues --    5.30031   5.30673   5.32834   5.33356   5.34785
 Alpha virt. eigenvalues --    5.37059   5.37978   5.42309   5.43005   5.45772
 Alpha virt. eigenvalues --    5.50221   5.51361   5.52651   5.55892   5.58192
 Alpha virt. eigenvalues --    5.59193   5.61254   5.62244   5.63502   5.63909
 Alpha virt. eigenvalues --    5.66411   5.68686   5.69700   5.72851   5.74006
 Alpha virt. eigenvalues --    5.77411   5.78585   5.81453   5.84706   5.85372
 Alpha virt. eigenvalues --    5.86533   5.87807   5.88831   5.90625   5.90806
 Alpha virt. eigenvalues --    5.92683   5.95352   5.98607   6.05600   6.08215
 Alpha virt. eigenvalues --    6.10380   6.11875   6.12294   6.17205   6.22124
 Alpha virt. eigenvalues --    6.34750   6.43909   6.45027   6.48198   6.50100
 Alpha virt. eigenvalues --    6.50239   6.53695   6.55789   6.57033   6.61023
 Alpha virt. eigenvalues --    6.63929   6.64778   6.71382   6.76160   6.86634
 Alpha virt. eigenvalues --    6.87485   6.96282   7.02492   7.02942   7.04423
 Alpha virt. eigenvalues --    7.05543   7.09615   7.13286   7.44463   8.49455
 Alpha virt. eigenvalues --    8.96717   9.25884  11.46450  11.84031  11.88106
 Alpha virt. eigenvalues --   12.19287  12.27072  12.42528  12.46670  12.59282
 Alpha virt. eigenvalues --   12.83685  13.20709  13.50761  13.93819  13.98303
 Alpha virt. eigenvalues --   15.14263
          Condensed to atoms (all electrons):
               1          2          3          4          5          6
     1  C    5.403763   0.148222   0.024327  -0.042140  -0.001922   0.274214
     2  C    0.148222   5.507860   0.235515   0.003496  -0.051515   0.049667
     3  C    0.024327   0.235515   5.396497   0.293304   0.031723  -0.112785
     4  C   -0.042140   0.003496   0.293304   5.336314   0.198284   0.045650
     5  C   -0.001922  -0.051515   0.031723   0.198284   5.361123   0.280593
     6  C    0.274214   0.049667  -0.112785   0.045650   0.280593   5.073551
     7  H    0.443877  -0.048161   0.012721  -0.005323   0.014815  -0.073813
     8  H   -0.021449   0.433096  -0.082134   0.006722  -0.003705   0.009223
     9  H   -0.003975   0.010046  -0.080995   0.455428  -0.038817   0.010363
    10  H    0.016357  -0.006416   0.014939  -0.056318   0.449877  -0.077786
    11  C    0.008272  -0.038028   0.242715  -0.066141   0.005348  -0.001952
    12  H    0.000377   0.002493  -0.038096  -0.006925   0.000416  -0.000246
    13  H   -0.000077   0.004494  -0.051265  -0.003012  -0.000129   0.000059
    14  C   -0.001930  -0.027747  -0.000024   0.007919  -0.000535   0.000262
    15  H   -0.000498  -0.009701  -0.001577   0.000706  -0.000013   0.000039
    16  C   -0.000123   0.000862   0.003296  -0.000501  -0.000005  -0.000003
    17  O   -0.057119   0.013772  -0.001270   0.012674  -0.057979   0.326386
    18  H   -0.012224   0.001456  -0.000681   0.001721  -0.011912  -0.024690
    19  O    0.000000  -0.000272   0.002889  -0.000129  -0.000001   0.000000
    20  N   -0.001380   0.006106  -0.011721   0.001251  -0.000236   0.000129
    21  H   -0.000043  -0.000366  -0.002704  -0.000157  -0.000058  -0.000007
    22  N   -0.000003  -0.000192   0.000409  -0.000005   0.000000   0.000000
    23  H    0.000000   0.000020  -0.000091  -0.000001   0.000000   0.000000
    24  C   -0.000471  -0.001214  -0.000408   0.000190  -0.000054   0.000042
    25  C   -0.000014  -0.000061  -0.000045   0.000005  -0.000001   0.000001
    26  H    0.000000   0.000003   0.000008   0.000000   0.000000   0.000000
    27  H    0.000000  -0.000009   0.000007   0.000002   0.000000   0.000000
    28  H    0.000001  -0.000003   0.000003  -0.000001   0.000000   0.000000
    29  C    0.000000   0.000009  -0.000006   0.000000   0.000000   0.000000
    30  H    0.000000   0.000000  -0.000001   0.000000   0.000000   0.000000
    31  H    0.000000   0.000001  -0.000001   0.000000   0.000000   0.000000
    32  H    0.000000   0.000001  -0.000001  -0.000001   0.000000   0.000000
    33  O   -0.000269  -0.001876  -0.000407   0.000018  -0.000003   0.000006
               7          8          9         10         11         12
     1  C    0.443877  -0.021449  -0.003975   0.016357   0.008272   0.000377
     2  C   -0.048161   0.433096   0.010046  -0.006416  -0.038028   0.002493
     3  C    0.012721  -0.082134  -0.080995   0.014939   0.242715  -0.038096
     4  C   -0.005323   0.006722   0.455428  -0.056318  -0.066141  -0.006925
     5  C    0.014815  -0.003705  -0.038817   0.449877   0.005348   0.000416
     6  C   -0.073813   0.009223   0.010363  -0.077786  -0.001952  -0.000246
     7  H    0.523595  -0.007238   0.000023  -0.000054  -0.000116   0.000024
     8  H   -0.007238   0.478865  -0.000083   0.000025  -0.005841   0.001449
     9  H    0.000023  -0.000083   0.516714  -0.009209   0.000692   0.000093
    10  H   -0.000054   0.000025  -0.009209   0.529849  -0.000215   0.000035
    11  C   -0.000116  -0.005841   0.000692  -0.000215   5.237251   0.429956
    12  H    0.000024   0.001449   0.000093   0.000035   0.429956   0.507852
    13  H    0.000015  -0.000191   0.002203  -0.000057   0.425636  -0.015281
    14  C   -0.000001   0.000176  -0.000261   0.000008   0.213927  -0.051834
    15  H    0.000033  -0.002019  -0.000018  -0.000001  -0.012708  -0.005465
    16  C   -0.000003   0.002618  -0.000040   0.000000  -0.063974   0.005455
    17  O    0.005629  -0.000168  -0.000100   0.005741   0.000004  -0.000002
    18  H   -0.001944   0.000045   0.000052  -0.002096  -0.000004  -0.000002
    19  O    0.000000  -0.000099  -0.000057   0.000000  -0.004271  -0.000957
    20  N   -0.000034   0.001378   0.000222  -0.000005  -0.047844   0.004723
    21  H    0.000004  -0.000142  -0.000013  -0.000001   0.000912   0.000225
    22  N    0.000000  -0.000463  -0.000001   0.000000   0.004134  -0.000365
    23  H    0.000000   0.000038   0.000000   0.000000  -0.000799   0.000135
    24  C   -0.000033   0.003872   0.000014   0.000000   0.001310   0.000055
    25  C   -0.000001   0.000521   0.000001   0.000000  -0.000932   0.000061
    26  H    0.000000  -0.000023   0.000000   0.000000   0.000016  -0.000001
    27  H    0.000000  -0.000067   0.000000   0.000000   0.000672  -0.000025
    28  H    0.000000  -0.000039   0.000000   0.000000   0.000015  -0.000007
    29  C    0.000000   0.000026   0.000000   0.000000  -0.000459   0.000007
    30  H    0.000000   0.000000   0.000000   0.000000   0.000009  -0.000001
    31  H    0.000000  -0.000001   0.000000   0.000000   0.000124   0.000004
    32  H    0.000000   0.000007   0.000000   0.000000  -0.000309   0.000005
    33  O   -0.000022   0.005530   0.000000   0.000000   0.000180   0.000010
              13         14         15         16         17         18
     1  C   -0.000077  -0.001930  -0.000498  -0.000123  -0.057119  -0.012224
     2  C    0.004494  -0.027747  -0.009701   0.000862   0.013772   0.001456
     3  C   -0.051265  -0.000024  -0.001577   0.003296  -0.001270  -0.000681
     4  C   -0.003012   0.007919   0.000706  -0.000501   0.012674   0.001721
     5  C   -0.000129  -0.000535  -0.000013  -0.000005  -0.057979  -0.011912
     6  C    0.000059   0.000262   0.000039  -0.000003   0.326386  -0.024690
     7  H    0.000015  -0.000001   0.000033  -0.000003   0.005629  -0.001944
     8  H   -0.000191   0.000176  -0.002019   0.002618  -0.000168   0.000045
     9  H    0.002203  -0.000261  -0.000018  -0.000040  -0.000100   0.000052
    10  H   -0.000057   0.000008  -0.000001   0.000000   0.005741  -0.002096
    11  C    0.425636   0.213927  -0.012708  -0.063974   0.000004  -0.000004
    12  H   -0.015281  -0.051834  -0.005465   0.005455  -0.000002  -0.000002
    13  H    0.458563  -0.026902   0.004244  -0.009571   0.000000   0.000001
    14  C   -0.026902   5.337559   0.409420   0.198177   0.000000   0.000000
    15  H    0.004244   0.409420   0.447395  -0.045792   0.000001   0.000000
    16  C   -0.009571   0.198177  -0.045792   4.853343   0.000000   0.000000
    17  O    0.000000   0.000000   0.000001   0.000000   7.750420   0.343132
    18  H    0.000001   0.000000   0.000000   0.000000   0.343132   0.521986
    19  O    0.014770  -0.082115   0.004366   0.660521   0.000000   0.000000
    20  N   -0.005798   0.283310  -0.034048  -0.053158   0.000000   0.000000
    21  H    0.004956  -0.043304   0.007496   0.004030   0.000000   0.000000
    22  N    0.001379  -0.082769   0.016608   0.313342   0.000000   0.000000
    23  H   -0.000056   0.007085  -0.000923  -0.016804   0.000000   0.000000
    24  C   -0.000581  -0.039963  -0.003010   0.009110   0.000000   0.000000
    25  C    0.000015  -0.003471  -0.001265   0.001619   0.000000   0.000000
    26  H    0.000004  -0.000085   0.000115  -0.000087   0.000000   0.000000
    27  H   -0.000026  -0.001723   0.000911  -0.005236   0.000000   0.000000
    28  H   -0.000039   0.001359  -0.000111  -0.000197   0.000000   0.000000
    29  C   -0.000112   0.010142  -0.001032  -0.044764   0.000000   0.000000
    30  H   -0.000001  -0.000119  -0.000059   0.006426   0.000000   0.000000
    31  H   -0.000086   0.001825   0.000018  -0.009074   0.000000   0.000000
    32  H    0.000016   0.000998  -0.000357  -0.000435   0.000000   0.000000
    33  O    0.000015   0.001694   0.002580  -0.000667   0.000000   0.000000
              19         20         21         22         23         24
     1  C    0.000000  -0.001380  -0.000043  -0.000003   0.000000  -0.000471
     2  C   -0.000272   0.006106  -0.000366  -0.000192   0.000020  -0.001214
     3  C    0.002889  -0.011721  -0.002704   0.000409  -0.000091  -0.000408
     4  C   -0.000129   0.001251  -0.000157  -0.000005  -0.000001   0.000190
     5  C   -0.000001  -0.000236  -0.000058   0.000000   0.000000  -0.000054
     6  C    0.000000   0.000129  -0.000007   0.000000   0.000000   0.000042
     7  H    0.000000  -0.000034   0.000004   0.000000   0.000000  -0.000033
     8  H   -0.000099   0.001378  -0.000142  -0.000463   0.000038   0.003872
     9  H   -0.000057   0.000222  -0.000013  -0.000001   0.000000   0.000014
    10  H    0.000000  -0.000005  -0.000001   0.000000   0.000000   0.000000
    11  C   -0.004271  -0.047844   0.000912   0.004134  -0.000799   0.001310
    12  H   -0.000957   0.004723   0.000225  -0.000365   0.000135   0.000055
    13  H    0.014770  -0.005798   0.004956   0.001379  -0.000056  -0.000581
    14  C   -0.082115   0.283310  -0.043304  -0.082769   0.007085  -0.039963
    15  H    0.004366  -0.034048   0.007496   0.016608  -0.000923  -0.003010
    16  C    0.660521  -0.053158   0.004030   0.313342  -0.016804   0.009110
    17  O    0.000000   0.000000   0.000000   0.000000   0.000000   0.000000
    18  H    0.000000   0.000000   0.000000   0.000000   0.000000   0.000000
    19  O    7.827848  -0.002943   0.003235  -0.102595  -0.000564  -0.002026
    20  N   -0.002943   6.608132   0.365628   0.003266   0.000124   0.246709
    21  H    0.003235   0.365628   0.571653   0.000804   0.000033  -0.014865
    22  N   -0.102595   0.003266   0.000804   6.566884   0.356245   0.006042
    23  H   -0.000564   0.000124   0.000033   0.356245   0.574940  -0.000578
    24  C   -0.002026   0.246709  -0.014865   0.006042  -0.000578   4.600405
    25  C   -0.000030  -0.100847   0.001818  -0.035166   0.001671   0.268257
    26  H    0.000023   0.007354   0.000182   0.000146   0.000008  -0.022137
    27  H   -0.000777   0.002641   0.000096   0.046411  -0.002352  -0.020320
    28  H    0.000658   0.007251  -0.001066   0.000160  -0.000059  -0.045749
    29  C   -0.008075  -0.002026  -0.000107   0.207560  -0.017887  -0.000103
    30  H    0.001194  -0.000010  -0.000006  -0.027983  -0.004409   0.000011
    31  H    0.018442  -0.000113  -0.000074  -0.035188  -0.006597   0.000095
    32  H    0.000617  -0.000312  -0.000034  -0.048286   0.008294  -0.000652
    33  O    0.000004  -0.095448   0.003854  -0.001121   0.000014   0.696716
              25         26         27         28         29         30
     1  C   -0.000014   0.000000   0.000000   0.000001   0.000000   0.000000
     2  C   -0.000061   0.000003  -0.000009  -0.000003   0.000009   0.000000
     3  C   -0.000045   0.000008   0.000007   0.000003  -0.000006  -0.000001
     4  C    0.000005   0.000000   0.000002  -0.000001   0.000000   0.000000
     5  C   -0.000001   0.000000   0.000000   0.000000   0.000000   0.000000
     6  C    0.000001   0.000000   0.000000   0.000000   0.000000   0.000000
     7  H   -0.000001   0.000000   0.000000   0.000000   0.000000   0.000000
[...]
 Alpha virt. eigenvalues --   13.51813  13.55313  13.61746  13.71474  13.93948
 Alpha virt. eigenvalues --   15.56544
          Condensed to atoms (all electrons):
               1          2          3          4          5          6
     1  C    5.420519   0.233810  -0.001556  -0.042646  -0.023999   0.304812
     2  C    0.233810   5.335516   0.310321  -0.007195  -0.028646   0.021842
     3  C   -0.001556   0.310321   5.465975   0.271987  -0.049208  -0.065984
     4  C   -0.042646  -0.007195   0.271987   5.257980   0.430503  -0.023329
     5  C   -0.023999  -0.028646  -0.049208   0.430503   5.062246   0.396625
     6  C    0.304812   0.021842  -0.065984  -0.023329   0.396625   4.861421
     7  H    0.450220  -0.034221   0.008961  -0.000525   0.003686  -0.072482
     8  H   -0.020559   0.435584  -0.076262   0.006964  -0.001406   0.006568
     9  H   -0.003425   0.009045  -0.099099   0.448657  -0.030279   0.010690
    10  H    0.014586  -0.005973   0.013671  -0.055582   0.450404  -0.078157
    11  C    0.004077  -0.055401   0.151728  -0.034507   0.009199  -0.000870
    12  H    0.000153  -0.005879  -0.041738   0.005700  -0.000177   0.000065
    13  H   -0.000226   0.004310  -0.050228  -0.002392  -0.000140   0.000032
    14  C    0.001455  -0.001176  -0.020906  -0.006113  -0.000058  -0.000319
    15  H   -0.000147  -0.003563   0.001311  -0.000365  -0.000128  -0.000010
    16  C   -0.000009   0.001543   0.007607  -0.000169  -0.000033   0.000000
    17  O   -0.091405   0.013648  -0.000649   0.002812  -0.050271   0.396129
    18  H   -0.005693   0.004637  -0.000387  -0.000739   0.002358  -0.043671
    19  O    0.000000  -0.000152   0.005891  -0.000337  -0.000003   0.000000
    20  N   -0.000176   0.002634  -0.007434   0.003622  -0.000216   0.000083
    21  H   -0.000293   0.001005  -0.002298   0.003153  -0.000126   0.000023
    22  N    0.000000  -0.000101   0.000651  -0.000026   0.000000   0.000000
    23  H   -0.000003  -0.000036  -0.000199   0.000022   0.000000   0.000000
    24  C    0.000076  -0.000073  -0.003092  -0.000110   0.000089  -0.000011
    25  C   -0.000004   0.000068  -0.000014   0.000116   0.000026  -0.000005
    26  H    0.000034  -0.000019   0.000027  -0.000076   0.000015  -0.000001
    27  H    0.000000   0.000006  -0.000007   0.000010   0.000000   0.000001
    28  H   -0.000003   0.000024   0.000121  -0.000015   0.000055  -0.000006
    29  C    0.000000   0.000006  -0.000014   0.000001   0.000000   0.000000
    30  H    0.000000   0.000000   0.000000   0.000000   0.000000   0.000000
    31  H    0.000000   0.000000   0.000000   0.000000   0.000000   0.000000
    32  H    0.000000   0.000002  -0.000020   0.000001   0.000000   0.000000
    33  O   -0.000022  -0.000257  -0.000082  -0.000005   0.000002  -0.000001
               7          8          9         10         11         12
     1  C    0.450220  -0.020559  -0.003425   0.014586   0.004077   0.000153
     2  C   -0.034221   0.435584   0.009045  -0.005973  -0.055401  -0.005879
     3  C    0.008961  -0.076262  -0.099099   0.013671   0.151728  -0.041738
     4  C   -0.000525   0.006964   0.448657  -0.055582  -0.034507   0.005700
     5  C    0.003686  -0.001406  -0.030279   0.450404   0.009199  -0.000177
     6  C   -0.072482   0.006568   0.010690  -0.078157  -0.000870   0.000065
     7  H    0.535237  -0.006741   0.000053  -0.000240  -0.000244  -0.000015
     8  H   -0.006741   0.498388  -0.000213   0.000045   0.001973   0.000651
     9  H    0.000053  -0.000213   0.496707  -0.009064   0.007634   0.000284
    10  H   -0.000240   0.000045  -0.009064   0.539353  -0.000284   0.000015
    11  C   -0.000244   0.001973   0.007634  -0.000284   5.389588   0.434917
    12  H   -0.000015   0.000651   0.000284   0.000015   0.434917   0.467205
    13  H    0.000017   0.000150   0.002440  -0.000049   0.424949  -0.002736
    14  C    0.000052   0.000169  -0.001081   0.000028   0.177407  -0.058925
    15  H    0.000022   0.001618  -0.000037   0.000000   0.000249  -0.002433
    16  C    0.000000   0.000098   0.000008   0.000000  -0.063888   0.004755
    17  O   -0.004037  -0.000108  -0.000138   0.006506  -0.000008  -0.000001
    18  H    0.004568  -0.000005   0.000046  -0.000994  -0.000007   0.000000
    19  O    0.000000   0.000023  -0.000059   0.000000   0.014962   0.003046
    20  N   -0.000005   0.000043  -0.000063  -0.000001  -0.053359   0.003787
    21  H    0.000001   0.000028   0.001015  -0.000037   0.008165   0.000274
    22  N    0.000000  -0.000021  -0.000001   0.000000   0.007351  -0.000008
    23  H    0.000000  -0.000014   0.000001   0.000000  -0.000051  -0.000032
    24  C    0.000000  -0.000058   0.000011   0.000001   0.007127  -0.000010
    25  C    0.000000  -0.000007   0.000012   0.000002  -0.000216   0.000032
    26  H    0.000000   0.000004  -0.000005   0.000001   0.000069  -0.000002
    27  H    0.000000   0.000000   0.000000   0.000000  -0.000056  -0.000001
    28  H    0.000000   0.000004   0.000022   0.000003  -0.000194   0.000000
    29  C    0.000000  -0.000001   0.000000   0.000000  -0.000634   0.000025
    30  H    0.000000   0.000000   0.000000   0.000000   0.000004  -0.000003
    31  H    0.000000   0.000000   0.000000   0.000000   0.000041   0.000007
    32  H    0.000000   0.000000   0.000000   0.000000  -0.000379  -0.000026
    33  O    0.000000  -0.000087   0.000000   0.000000   0.002536   0.000048
              13         14         15         16         17         18
     1  C   -0.000226   0.001455  -0.000147  -0.000009  -0.091405  -0.005693
     2  C    0.004310  -0.001176  -0.003563   0.001543   0.013648   0.004637
     3  C   -0.050228  -0.020906   0.001311   0.007607  -0.000649  -0.000387
     4  C   -0.002392  -0.006113  -0.000365  -0.000169   0.002812  -0.000739
     5  C   -0.000140  -0.000058  -0.000128  -0.000033  -0.050271   0.002358
     6  C    0.000032  -0.000319  -0.000010   0.000000   0.396129  -0.043671
     7  H    0.000017   0.000052   0.000022   0.000000  -0.004037   0.004568
     8  H    0.000150   0.000169   0.001618   0.000098  -0.000108  -0.000005
     9  H    0.002440  -0.001081  -0.000037   0.000008  -0.000138   0.000046
    10  H   -0.000049   0.000028   0.000000   0.000000   0.006506  -0.000994
    11  C    0.424949   0.177407   0.000249  -0.063888  -0.000008  -0.000007
    12  H   -0.002736  -0.058925  -0.002433   0.004755  -0.000001   0.000000
    13  H    0.442254  -0.048752   0.005467  -0.002673   0.000000   0.000000
    14  C   -0.048752   5.636276   0.386551   0.150535   0.000001   0.000000
    15  H    0.005467   0.386551   0.451773  -0.031770   0.000000   0.000000
    16  C   -0.002673   0.150535  -0.031770   4.547464   0.000000   0.000000
    17  O    0.000000   0.000001   0.000000   0.000000   7.651701   0.361547
    18  H    0.000000   0.000000   0.000000   0.000000   0.361547   0.493043
    19  O    0.014303  -0.112572   0.001872   0.731428   0.000000   0.000000
    20  N   -0.003178   0.191706  -0.047485  -0.009128   0.000000   0.000000
    21  H    0.003363  -0.030017   0.004930   0.000746   0.000001   0.000000
    22  N    0.000839  -0.095197   0.004359   0.463827   0.000000   0.000000
    23  H   -0.000101   0.009334  -0.000465  -0.034077   0.000000   0.000000
    24  C   -0.000899  -0.053424  -0.016479   0.001067   0.000000   0.000000
    25  C   -0.000114   0.009455   0.000623  -0.001183   0.000000   0.000000
    26  H    0.000014  -0.000404   0.000174   0.000017   0.000000   0.000000
    27  H   -0.000009  -0.000400  -0.000270   0.000124   0.000000   0.000000
    28  H   -0.000008   0.000245  -0.000272   0.000192   0.000000   0.000000
    29  C   -0.000018   0.009221  -0.000831  -0.060155   0.000000   0.000000
    30  H    0.000014  -0.000023   0.000182   0.000630   0.000000   0.000000
    31  H   -0.000002  -0.000524  -0.000118   0.004241   0.000000   0.000000
    32  H   -0.000126   0.005392  -0.000476  -0.015270   0.000000   0.000000
    33  O   -0.000023   0.023368   0.018377  -0.017641   0.000000   0.000000
              19         20         21         22         23         24
     1  C    0.000000  -0.000176  -0.000293   0.000000  -0.000003   0.000076
     2  C   -0.000152   0.002634   0.001005  -0.000101  -0.000036  -0.000073
     3  C    0.005891  -0.007434  -0.002298   0.000651  -0.000199  -0.003092
     4  C   -0.000337   0.003622   0.003153  -0.000026   0.000022  -0.000110
     5  C   -0.000003  -0.000216  -0.000126   0.000000   0.000000   0.000089
     6  C    0.000000   0.000083   0.000023   0.000000   0.000000  -0.000011
     7  H    0.000000  -0.000005   0.000001   0.000000   0.000000   0.000000
     8  H    0.000023   0.000043   0.000028  -0.000021  -0.000014  -0.000058
     9  H   -0.000059  -0.000063   0.001015  -0.000001   0.000001   0.000011
    10  H    0.000000  -0.000001  -0.000037   0.000000   0.000000   0.000001
    11  C    0.014962  -0.053359   0.008165   0.007351  -0.000051   0.007127
    12  H    0.003046   0.003787   0.000274  -0.000008  -0.000032  -0.000010
    13  H    0.014303  -0.003178   0.003363   0.000839  -0.000101  -0.000899
    14  C   -0.112572   0.191706  -0.030017  -0.095197   0.009334  -0.053424
    15  H    0.001872  -0.047485   0.004930   0.004359  -0.000465  -0.016479
    16  C    0.731428  -0.009128   0.000746   0.463827  -0.034077   0.001067
    17  O    0.000000   0.000000   0.000001   0.000000   0.000000   0.000000
    18  H    0.000000   0.000000   0.000000   0.000000   0.000000   0.000000
    19  O    7.820551   0.000796   0.000454  -0.111778   0.003573  -0.000760
    20  N    0.000796   6.553489   0.371230  -0.003543  -0.005752   0.366644
    21  H    0.000454   0.371230   0.499457  -0.000258  -0.000245  -0.017984
    22  N   -0.111778  -0.003543  -0.000258   6.422016   0.378906   0.009629
    23  H    0.003573  -0.005752  -0.000245   0.378906   0.457798  -0.006121
    24  C   -0.000760   0.366644  -0.017984   0.009629  -0.006121   4.546230
    25  C   -0.000007  -0.052564  -0.001951   0.000073   0.001588   0.291324
    26  H    0.000000  -0.001638   0.000373   0.000002  -0.000037  -0.022602
    27  H   -0.000002   0.000796  -0.000364   0.000090  -0.000016  -0.031324
    28  H   -0.000004   0.010613  -0.001087   0.000052  -0.000197  -0.057765
    29  C   -0.015576  -0.000725   0.000030   0.272317  -0.027927  -0.000041
    30  H    0.000030   0.000253  -0.000005  -0.038103  -0.002025  -0.000363
    31  H   -0.000002  -0.000025   0.000001  -0.034379  -0.005380   0.000189
    32  H    0.030058  -0.000259  -0.000010  -0.040427   0.005057   0.000009
    33  O    0.000036  -0.135112   0.004127  -0.017601   0.037759   0.664046
              25         26         27         28         29         30
     1  C   -0.000004   0.000034   0.000000  -0.000003   0.000000   0.000000
     2  C    0.000068  -0.000019   0.000006   0.000024   0.000006   0.000000
     3  C   -0.000014   0.000027  -0.000007   0.000121  -0.000014   0.000000
     4  C    0.000116  -0.000076   0.000010  -0.000015   0.000001   0.000000
     5  C    0.000026   0.000015   0.000000   0.000055   0.000000   0.000000
     6  C   -0.000005  -0.000001   0.000001  -0.000006   0.000000   0.000000
     7  H    0.000000   0.000000   0.000000   0.000000   0.000000   0.000000
     8  H   -0.000007   0.000004   0.000000   0.000004  -0.000001   0.000000
     9  H    0.000012  -0.000005   0.000000   0.000022   0.000000   0.000000
    10  H    0.000002   0.000001   0.000000   0.000003   0.000000   0.000000
    11  C   -0.000216   0.000069  -0.000056  -0.000194  -0.000634   0.000004
    12  H    0.000032  -0.000002  -0.000001   0.000000   0.000025  -0.000003
    13  H   -0.000114   0.000014  -0.000009  -0.000008  -0.000018   0.000014
    14  C    0.009455  -0.000404  -0.000400   0.000245   0.009221  -0.000023
    15  H    0.000623   0.000174  -0.000270  -0.000272  -0.000831   0.000182
    16  C   -0.001183   0.000017   0.000124   0.000192  -0.060155   0.000630
    17  O    0.000000   0.000000   0.000000   0.000000   0.000000   0.000000
    18  H    0.000000   0.000000   0.000000   0.000000   0.000000   0.000000
    19  O   -0.000007   0.000000  -0.000002  -0.000004  -0.015576   0.000030
    20  N   -0.052564  -0.001638   0.000796   0.010613  -0.000725   0.000253
    21  H   -0.001951   0.000373  -0.000364  -0.001087   0.000030  -0.000005
    22  N    0.000073   0.000002   0.000090   0.000052   0.272317  -0.038103
    23  H    0.001588  -0.000037  -0.000016  -0.000197  -0.027927  -0.002025
    24  C    0.291324  -0.022602  -0.031324  -0.057765  -0.000041  -0.000363
    25  C    4.934229   0.385581   0.390746   0.405201  -0.000051  -0.000019
    26  H    0.385581   0.570532  -0.026664  -0.025041  -0.000003   0.000001
    27  H    0.390746  -0.026664   0.575911  -0.025529   0.000025  -0.000020
    28  H    0.405201  -0.025041  -0.025529   0.590247  -0.000002  -0.000002
    29  C   -0.000051  -0.000003   0.000025  -0.000002   4.807526   0.400316
    30  H   -0.000019   0.000001  -0.000020  -0.000002   0.400316   0.621727
    31  H    0.000004   0.000000   0.000001   0.000000   0.401069  -0.043614
    32  H   -0.000005   0.000000   0.000004   0.000001   0.397707  -0.030815
    33  O   -0.057243   0.001126   0.002503   0.003612   0.000459   0.000123
              31         32         33
     1  C    0.000000   0.000000  -0.000022
     2  C    0.000000   0.000002  -0.000257
     3  C    0.000000  -0.000020  -0.000082
     4  C    0.000000   0.000001  -0.000005
     5  C    0.000000   0.000000   0.000002
     6  C    0.000000   0.000000  -0.000001
     7  H    0.000000   0.000000   0.000000
     8  H    0.000000   0.000000  -0.000087
     9  H    0.000000   0.000000   0.000000
    10  H    0.000000   0.000000   0.000000
    11  C    0.000041  -0.000379   0.002536
    12  H    0.000007  -0.000026   0.000048
    13  H   -0.000002  -0.000126  -0.000023
    14  C   -0.000524   0.005392   0.023368
    15  H   -0.000118  -0.000476   0.018377
    16  C    0.004241  -0.015270  -0.017641
    17  O    0.000000   0.000000   0.000000
    18  H    0.000000   0.000000   0.000000
    19  O   -0.000002   0.030058   0.000036
    20  N   -0.000025  -0.000259  -0.135112
    21  H    0.000001  -0.000010   0.004127
    22  N   -0.034379  -0.040427  -0.017601
    23  H   -0.005380   0.005057   0.037759
    24  C    0.000189   0.000009   0.664046
    25  C    0.000004  -0.000005  -0.057243
    26  H    0.000000   0.000000   0.001126
    27  H    0.000001   0.000004   0.002503
    28  H    0.000000   0.000001   0.003612
    29  C    0.401069   0.397707   0.000459
    30  H   -0.043614  -0.030815   0.000123
    31  H    0.609032  -0.025440  -0.000035
    32  H   -0.025440   0.549435  -0.000050
    33  O   -0.000035  -0.000050   7.886867
 Mulliken charges:
               1
     1  C   -0.239576
     2  C   -0.231308
     3  C    0.180923
     4  C   -0.257397
     5  C   -0.170519
     6  C    0.286553
     7  H    0.115691
     8  H    0.153174
     9  H    0.166838
    10  H    0.125766
    11  C   -0.431878
    12  H    0.191023
    13  H    0.213524
    14  C   -0.171304
    15  H    0.227342
    16  C    0.321713
    17  O   -0.285730
    18  H    0.185295
    19  O   -0.385772
    20  N   -0.185032
    21  H    0.156299
    22  N   -0.218669
    23  H    0.188641
    24  C    0.324674
    25  C   -0.305696
    26  H    0.118522
    27  H    0.114444
    28  H    0.099732
    29  C   -0.182727
    30  H    0.091712
    31  H    0.094933
    32  H    0.125636
    33  O   -0.416828
 Sum of Mulliken charges =   0.00000
 Mulliken charges with hydrogens summed into heavy atoms:
               1
     1  C   -0.123884
     2  C   -0.078134
     3  C    0.180923
     4  C   -0.090560
     5  C   -0.044753
     6  C    0.286553
    11  C   -0.027331
    14  C    0.056038
    16  C    0.321713
    17  O   -0.100435
    19  O   -0.385772
    20  N   -0.028734
    22  N   -0.030028
    24  C    0.324674
    25  C    0.027002
    29  C    0.129554
    33  O   -0.416828
 Electronic spatial extent (au):  <R**2>=           5147.7724
 Charge=              0.0000 electrons
 Dipole moment (field-independent basis, Debye):
    X=              1.9175    Y=              2.0816    Z=             -0.4161  Tot=              2.8606
 Quadrupole moment (field-independent basis, Debye-Ang):
   XX=            -96.9574   YY=           -106.4984   ZZ=            -94.0309
   XY=             -3.2500   XZ=             -5.9525   YZ=              8.8453
 Traceless Quadrupole moment (field-independent basis, Debye-Ang):
   XX=              2.2048   YY=             -7.3362   ZZ=              5.1313
   XY=             -3.2500   XZ=             -5.9525   YZ=              8.8453
 Octapole moment (field-independent basis, Debye-Ang**2):
  XXX=            -27.5998  YYY=             34.4622  ZZZ=             -1.9656  XYY=             11.1554
  XXY=             19.2552  XXZ=            -59.3258  XZZ=             27.7335  YZZ=              0.6072
  YYZ=              4.4780  XYZ=            -21.4652
 Hexadecapole moment (field-independent basis, Debye-Ang**3):
 XXXX=          -4574.6238 YYYY=          -1241.9763 ZZZZ=           -485.2897 XXXY=             18.5189
 XXXZ=           -215.7001 YYYX=            -11.8776 YYYZ=             38.9165 ZZZX=            -26.6025
 ZZZY=              2.0123 XXYY=          -1115.8166 XXZZ=           -792.9919 YYZZ=           -312.9221
 XXYZ=             18.3387 YYXZ=            -10.8392 ZZXY=             13.3708
 N-N= 1.206744380102D+03 E-N=-4.283820145242D+03  KE= 7.962735246998D+02
 Calculating spin-rotation constants.
 Leave Link  601 at Mon Sep 30 20:03:18 2013, MaxMem= 17179869184 cpu:       213.3
 (Enter /system/software/linux-x86_64/gaussian/g09/D.01__pgi_12.10__atlas/l9999.exe)

 Test job not archived.
 1\1\GINC-CARIBOU\SP\RM06\Gen\C12H16N2O3\KUPROV\30-Sep-2013\0\\#P Geom=
 AllCheck Guess=TCheck SCRF=Check GenChk RM06/ChkBas NMR=ReadFC IOp(3/6
 =22)\\J-coupling calculation 1\\0,1\C,0,-5.4916133297,-1.2994471628,-0
 .7598022021\C,0,-4.1124788717,-1.2390652945,-0.6988053753\C,0,-3.46496
 41798,-0.3104686644,0.1059581484\C,0,-4.2516221957,0.5618553816,0.8476
 989083\C,0,-5.6323931536,0.5155302075,0.7997747956\C,0,-6.2582845752,-
 0.4212400987,-0.006735564\H,0,-5.9801157279,-2.0289627166,-1.397413565
 4\H,0,-3.5251560472,-1.9278429694,-1.2969274236\H,0,-3.7690239478,1.30
 85998518,1.4703954446\H,0,-6.2412577467,1.2002413503,1.3751132094\C,0,
 -1.9693130939,-0.2726489342,0.1874969678\H,0,-1.5227122522,-0.22265491
 88,-0.8079331899\H,0,-1.6310109556,0.6299926532,0.7039359262\C,0,-1.38
 32988774,-1.4824304289,0.8936849831\H,0,-1.6681340124,-2.4011784838,0.
 3693957138\C,0,0.1494244881,-1.4076852428,0.9319134079\O,0,-7.61259681
 59,-0.4333994187,-0.0259955777\H,0,-7.9169033831,-1.1185519565,-0.6252
 747571\O,0,0.7511425892,-0.3927851247,0.6493311694\N,0,-1.9276842639,-
 1.5909578189,2.2387567654\H,0,-2.3295204848,-0.7630986428,2.6472062085
 \N,0,0.7301306985,-2.5673920274,1.3068499339\H,0,0.1149385714,-3.32518
 09091,1.5803318068\C,0,-2.0819942869,-2.7761559822,2.8742285758\C,0,-2
 .8210582453,-2.7306298979,4.1796971756\H,0,-3.745131273,-3.2976484305,
 4.0715583196\H,0,-2.222808537,-3.2289079886,4.9403313969\H,0,-3.063008
 6346,-1.7222534949,4.5116610524\C,0,2.1552404632,-2.6966586306,1.46939
 5273\H,0,2.4248306705,-2.8862247619,2.5100607939\H,0,2.5491331193,-3.5
 09263394,0.857529562\H,0,2.617061535,-1.7639174368,1.1538380567\O,0,-1
 .6532245638,-3.8221773841,2.41817992\\Version=EM64L-G09RevD.01\State=1
 -A\HF=-801.872328\RMSD=3.861e-09\Dipole=-1.0025515,-0.376649,0.345917\
 Quadrupole=-0.4845856,-6.0861203,6.5707059,-1.1798311,5.0893784,4.9646
 367\PG=C01 [X(C12H16N2O3)]\\@


 IT IS A SIMPLE TASK TO MAKE THINGS COMPLEX,
 BUT A COMPLEX TASK TO MAKE THEM SIMPLE.
 Job cpu time:       9 days 10 hours 27 minutes 12.6 seconds.
 File lengths (MBytes):  RWF=   3164 Int=      0 D2E=      0 Chk=     74 Scr=      1
 Normal termination of Gaussian 09 at Mon Sep 30 20:03:19 2013.
