 Entering Gaussian System, Link 0=g09
 Input=valine.gjf
 Output=valine.log
 Initial command:
 /system/software/linux-x86_64/gaussian/g09/A.02__pgi_8.0-6__acml/l1.exe /export/home/spin_dynamics/kuprov/zenawi/Gau-42029.inp -scrdir=/export/home/spin_dynamics/kuprov/zenawi/
 Entering Link 1 = /system/software/linux-x86_64/gaussian/g09/A.02__pgi_8.0-6__acml/l1.exe PID=     42030.
  
 Copyright (c) 1988,1990,1992,1993,1995,1998,2003,2009, Gaussian, Inc.
                  All Rights Reserved.
  
 This is part of the Gaussian(R) 09 program.  It is based on
 the Gaussian(R) 03 system (copyright 2003, Gaussian, Inc.),
 the Gaussian(R) 98 system (copyright 1998, Gaussian, Inc.),
 the Gaussian(R) 94 system (copyright 1995, Gaussian, Inc.),
 the Gaussian 92(TM) system (copyright 1992, Gaussian, Inc.),
 the Gaussian 90(TM) system (copyright 1990, Gaussian, Inc.),
 the Gaussian 88(TM) system (copyright 1988, Gaussian, Inc.),
 the Gaussian 86(TM) system (copyright 1986, Carnegie Mellon
 University), and the Gaussian 82(TM) system (copyright 1983,
 Carnegie Mellon University). Gaussian is a federally registered
 trademark of Gaussian, Inc.
  
 This software contains proprietary and confidential information,
 including trade secrets, belonging to Gaussian, Inc.
  
 This software is provided under written license and may be
 used, copied, transmitted, or stored only in accord with that
 written license.
  
 The following legend is applicable only to US Government
 contracts under FAR:
  
                    RESTRICTED RIGHTS LEGEND
  
 Use, reproduction and disclosure by the US Government is
 subject to restrictions as set forth in subparagraphs (a)
 and (c) of the Commercial Computer Software - Restricted
 Rights clause in FAR 52.227-19.
  
 Gaussian, Inc.
 340 Quinnipiac St., Bldg. 40, Wallingford CT 06492
  
  
 ---------------------------------------------------------------
 Warning -- This program may not be used in any manner that
 competes with the business of Gaussian, Inc. or will provide
 assistance to any competitor of Gaussian, Inc.  The licensee
 of this program is prohibited from giving any competitor of
 Gaussian, Inc. access to this program.  By using this program,
 the user acknowledges that Gaussian, Inc. is engaged in the
 business of creating and licensing software in the field of
 computational chemistry and represents and warrants to the
 licensee that it is not a competitor of Gaussian, Inc. and that
 it will not use this program in any manner prohibited above.
 ---------------------------------------------------------------
  

 Cite this work as:
 Gaussian 09, Revision A.02,
 M. J. Frisch, G. W. Trucks, H. B. Schlegel, G. E. Scuseria, 
 M. A. Robb, J. R. Cheeseman, G. Scalmani, V. Barone, B. Mennucci, 
 G. A. Petersson, H. Nakatsuji, M. Caricato, X. Li, H. P. Hratchian, 
 A. F. Izmaylov, J. Bloino, G. Zheng, J. L. Sonnenberg, M. Hada, 
 M. Ehara, K. Toyota, R. Fukuda, J. Hasegawa, M. Ishida, T. Nakajima, 
 Y. Honda, O. Kitao, H. Nakai, T. Vreven, J. A. Montgomery, Jr., 
 J. E. Peralta, F. Ogliaro, M. Bearpark, J. J. Heyd, E. Brothers, 
 K. N. Kudin, V. N. Staroverov, R. Kobayashi, J. Normand, 
 K. Raghavachari, A. Rendell, J. C. Burant, S. S. Iyengar, J. Tomasi, 
 M. Cossi, N. Rega, J. M. Millam, M. Klene, J. E. Knox, J. B. Cross, 
 V. Bakken, C. Adamo, J. Jaramillo, R. Gomperts, R. E. Stratmann, 
 O. Yazyev, A. J. Austin, R. Cammi, C. Pomelli, J. W. Ochterski, 
 R. L. Martin, K. Morokuma, V. G. Zakrzewski, G. A. Voth, 
 P. Salvador, J. J. Dannenberg, S. Dapprich, A. D. Daniels, 
 O. Farkas, J. B. Foresman, J. V. Ortiz, J. Cioslowski, 
 and D. J. Fox, Gaussian, Inc., Wallingford CT, 2009.
 
 ******************************************
 Gaussian 09:  EM64L-G09RevA.02 11-Jun-2009
                28-Mar-2013 
 ******************************************
 %Chk=valine.chk
 %Mem=32GB
 %NProcShared=16
 Will use up to   16 processors via shared memory.
 ------------------------------------------------------------
 #p opt=tight m06/cc-pvtz scf=tight integral=(grid=ultrafine)
 ------------------------------------------------------------
 1/7=10,14=-1,18=20,19=15,26=3,38=1/1,3;
 2/9=110,12=2,17=6,18=5,40=1/2;
 3/5=16,6=1,11=2,16=1,25=1,30=1,71=1,74=-54,75=-5/1,2,3;
 4//1;
 5/5=2,32=2,38=5/2;
 6/7=2,8=2,9=2,10=2,28=1/1;
 7//1,2,3,16;
 1/7=10,14=-1,18=20,19=15/3(2);
 2/9=110/2;
 99//99;
 2/9=110/2;
 3/5=16,6=1,11=2,16=1,25=1,30=1,71=1,74=-54,75=-5/1,2,3;
 4/5=5,16=3/1;
 5/5=2,32=2,38=5/2;
 7//1,2,3,16;
 1/7=10,14=-1,18=20,19=15/3(-5);
 2/9=110/2;
 6/7=2,8=2,9=2,10=2,19=2,28=1/1;
 99/9=1/99;
 Leave Link    1 at Thu Mar 28 09:52:47 2013, MaxMem= 4294967296 cpu:       2.1
 (Enter /system/software/linux-x86_64/gaussian/g09/A.02__pgi_8.0-6__acml/l101.exe)
 ---------------------
 Geometry optimisation
 ---------------------
 Symbolic Z-matrix:
 Charge =  0 Multiplicity = 1
 C                     0.18572  -3.39781  -0.50573 
 C                    -1.3336   -3.56891  -0.69009 
 H                    -1.64338  -4.49643  -0.25575 
 C                    -1.6718   -3.56732  -2.19249 
 H                    -1.16091  -4.37485  -2.67394 
 C                    -1.22596  -2.23238  -2.81762 
 H                    -0.17032  -2.1135   -2.68953 
 H                    -1.46093  -2.23128  -3.8615 
 H                    -1.73684  -1.42485  -2.33617 
 C                    -3.19112  -3.73842  -2.37685 
 H                    -3.4261   -3.73731  -3.42073 
 H                    -3.50089  -4.66594  -1.94251 
 H                    -3.702    -2.93089  -1.89541 
 O                     0.68103  -2.24574  -0.40102 
 N                    -2.03547  -2.45949  -0.02866 
 H                    -1.81586  -2.46053   0.94693 
 N                     1.05737  -4.58028  -0.45206 
 H                     1.36428  -4.81034  -1.37558 
 C                     2.22404  -4.29101   0.39417 
 H                     2.85851  -5.15172   0.43324 
 H                     2.76717  -3.46592  -0.01709 
 H                     1.89565  -4.04484   1.38233 
 C                    -3.48573  -2.62282  -0.20464 
 C                    -4.3989   -1.38404  -0.26087 
 H                    -5.2481   -1.5946   -0.87683 
 H                    -4.72729  -1.13787   0.72729 
 H                    -3.85577  -0.55895  -0.67213 
 O                    -3.98105  -3.77489  -0.30935 
 
 NAtoms=     28 NQM=     28 NQMF=      0 NMic=      0 NMicF=      0 NTot=     28.
                    Isotopes and Nuclear Properties:
 (Nuclear quadrupole moments (NQMom) in fm**2, nuclear magnetic moments (NMagM)
  in nuclear magnetons)

  Atom         1           2           3           4           5           6           7           8           9          10
 IAtWgt=          12          12           1          12           1          12           1           1           1          12
 AtmWgt=  12.0000000  12.0000000   1.0078250  12.0000000   1.0078250  12.0000000   1.0078250   1.0078250   1.0078250  12.0000000
 NucSpn=           0           0           1           0           1           0           1           1           1           0
 AtZEff=   0.0000000   0.0000000   0.0000000   0.0000000   0.0000000   0.0000000   0.0000000   0.0000000   0.0000000   0.0000000
 NQMom=    0.0000000   0.0000000   0.0000000   0.0000000   0.0000000   0.0000000   0.0000000   0.0000000   0.0000000   0.0000000
 NMagM=    0.0000000   0.0000000   2.7928460   0.0000000   2.7928460   0.0000000   2.7928460   2.7928460   2.7928460   0.0000000

  Atom        11          12          13          14          15          16          17          18          19          20
 IAtWgt=           1           1           1          16          14           1          14           1          12           1
 AtmWgt=   1.0078250   1.0078250   1.0078250  15.9949146  14.0030740   1.0078250  14.0030740   1.0078250  12.0000000   1.0078250
 NucSpn=           1           1           1           0           2           1           2           1           0           1
 AtZEff=   0.0000000   0.0000000   0.0000000   0.0000000   0.0000000   0.0000000   0.0000000   0.0000000   0.0000000   0.0000000
 NQMom=    0.0000000   0.0000000   0.0000000   0.0000000   2.0440000   0.0000000   2.0440000   0.0000000   0.0000000   0.0000000
 NMagM=    2.7928460   2.7928460   2.7928460   0.0000000   0.4037610   2.7928460   0.4037610   2.7928460   0.0000000   2.7928460

  Atom        21          22          23          24          25          26          27          28
 IAtWgt=           1           1          12          12           1           1           1          16
 AtmWgt=   1.0078250   1.0078250  12.0000000  12.0000000   1.0078250   1.0078250   1.0078250  15.9949146
 NucSpn=           1           1           0           0           1           1           1           0
 AtZEff=   0.0000000   0.0000000   0.0000000   0.0000000   0.0000000   0.0000000   0.0000000   0.0000000
 NQMom=    0.0000000   0.0000000   0.0000000   0.0000000   0.0000000   0.0000000   0.0000000   0.0000000
 NMagM=    2.7928460   2.7928460   0.0000000   0.0000000   2.7928460   2.7928460   2.7928460   0.0000000
 Leave Link  101 at Thu Mar 28 09:52:48 2013, MaxMem= 4294967296 cpu:       5.7
 (Enter /system/software/linux-x86_64/gaussian/g09/A.02__pgi_8.0-6__acml/l103.exe)

 GradGradGradGradGradGradGradGradGradGradGradGradGradGradGradGradGradGrad
 Berny optimization.
 Initialization pass.
                           ----------------------------
                           !    Initial Parameters    !
                           ! (Angstroms and Degrees)  !
 --------------------------                            --------------------------
 ! Name  Definition              Value          Derivative Info.                !
 --------------------------------------------------------------------------------
 ! R1    R(1,2)                  1.54           estimate D2E/DX2                !
 ! R2    R(1,14)                 1.2584         estimate D2E/DX2                !
 ! R3    R(1,17)                 1.47           estimate D2E/DX2                !
 ! R4    R(2,3)                  1.07           estimate D2E/DX2                !
 ! R5    R(2,4)                  1.54           estimate D2E/DX2                !
 ! R6    R(2,15)                 1.47           estimate D2E/DX2                !
 ! R7    R(4,5)                  1.07           estimate D2E/DX2                !
 ! R8    R(4,6)                  1.54           estimate D2E/DX2                !
 ! R9    R(4,10)                 1.54           estimate D2E/DX2                !
 ! R10   R(6,7)                  1.07           estimate D2E/DX2                !
 ! R11   R(6,8)                  1.07           estimate D2E/DX2                !
 ! R12   R(6,9)                  1.07           estimate D2E/DX2                !
 ! R13   R(10,11)                1.07           estimate D2E/DX2                !
 ! R14   R(10,12)                1.07           estimate D2E/DX2                !
 ! R15   R(10,13)                1.07           estimate D2E/DX2                !
 ! R16   R(13,23)                1.7322         estimate D2E/DX2                !
 ! R17   R(15,16)                1.0            estimate D2E/DX2                !
 ! R18   R(15,23)                1.47           estimate D2E/DX2                !
 ! R19   R(17,18)                1.0            estimate D2E/DX2                !
 ! R20   R(17,19)                1.47           estimate D2E/DX2                !
 ! R21   R(19,20)                1.07           estimate D2E/DX2                !
 ! R22   R(19,21)                1.07           estimate D2E/DX2                !
 ! R23   R(19,22)                1.07           estimate D2E/DX2                !
 ! R24   R(23,24)                1.54           estimate D2E/DX2                !
 ! R25   R(23,28)                1.2584         estimate D2E/DX2                !
 ! R26   R(24,25)                1.07           estimate D2E/DX2                !
 ! R27   R(24,26)                1.07           estimate D2E/DX2                !
 ! R28   R(24,27)                1.07           estimate D2E/DX2                !
 ! A1    A(2,1,14)             120.0            estimate D2E/DX2                !
 ! A2    A(2,1,17)             120.0            estimate D2E/DX2                !
 ! A3    A(14,1,17)            120.0            estimate D2E/DX2                !
 ! A4    A(1,2,3)              109.4712         estimate D2E/DX2                !
 ! A5    A(1,2,4)              109.4712         estimate D2E/DX2                !
 ! A6    A(1,2,15)             109.4712         estimate D2E/DX2                !
 ! A7    A(3,2,4)              109.4712         estimate D2E/DX2                !
 ! A8    A(3,2,15)             109.4712         estimate D2E/DX2                !
 ! A9    A(4,2,15)             109.4712         estimate D2E/DX2                !
 ! A10   A(2,4,5)              109.4712         estimate D2E/DX2                !
 ! A11   A(2,4,6)              109.4712         estimate D2E/DX2                !
 ! A12   A(2,4,10)             109.4712         estimate D2E/DX2                !
 ! A13   A(5,4,6)              109.4712         estimate D2E/DX2                !
 ! A14   A(5,4,10)             109.4712         estimate D2E/DX2                !
 ! A15   A(6,4,10)             109.4712         estimate D2E/DX2                !
 ! A16   A(4,6,7)              109.4712         estimate D2E/DX2                !
 ! A17   A(4,6,8)              109.4712         estimate D2E/DX2                !
 ! A18   A(4,6,9)              109.4712         estimate D2E/DX2                !
 ! A19   A(7,6,8)              109.4712         estimate D2E/DX2                !
 ! A20   A(7,6,9)              109.4712         estimate D2E/DX2                !
 ! A21   A(8,6,9)              109.4712         estimate D2E/DX2                !
 ! A22   A(4,10,11)            109.4712         estimate D2E/DX2                !
 ! A23   A(4,10,12)            109.4712         estimate D2E/DX2                !
 ! A24   A(4,10,13)            109.4712         estimate D2E/DX2                !
 ! A25   A(11,10,12)           109.4712         estimate D2E/DX2                !
 ! A26   A(11,10,13)           109.4712         estimate D2E/DX2                !
 ! A27   A(12,10,13)           109.4712         estimate D2E/DX2                !
 ! A28   A(2,15,16)            109.4712         estimate D2E/DX2                !
 ! A29   A(2,15,23)            109.4712         estimate D2E/DX2                !
 ! A30   A(16,15,23)           109.4712         estimate D2E/DX2                !
 ! A31   A(1,17,18)            109.4712         estimate D2E/DX2                !
 ! A32   A(1,17,19)            109.4712         estimate D2E/DX2                !
 ! A33   A(18,17,19)           109.4712         estimate D2E/DX2                !
 ! A34   A(17,19,20)           109.4712         estimate D2E/DX2                !
 ! A35   A(17,19,21)           109.4712         estimate D2E/DX2                !
 ! A36   A(17,19,22)           109.4712         estimate D2E/DX2                !
 ! A37   A(20,19,21)           109.4712         estimate D2E/DX2                !
 ! A38   A(20,19,22)           109.4712         estimate D2E/DX2                !
 ! A39   A(21,19,22)           109.4712         estimate D2E/DX2                !
 ! A40   A(15,23,24)           120.0            estimate D2E/DX2                !
 ! A41   A(15,23,28)           120.0            estimate D2E/DX2                !
 ! A42   A(24,23,28)           120.0            estimate D2E/DX2                !
 ! A43   A(23,24,25)           109.4712         estimate D2E/DX2                !
 ! A44   A(23,24,26)           109.4712         estimate D2E/DX2                !
 ! A45   A(23,24,27)           109.4712         estimate D2E/DX2                !
 ! A46   A(25,24,26)           109.4712         estimate D2E/DX2                !
 ! A47   A(25,24,27)           109.4712         estimate D2E/DX2                !
 ! A48   A(26,24,27)           109.4712         estimate D2E/DX2                !
 ! D1    D(14,1,2,3)          -150.0            estimate D2E/DX2                !
 ! D2    D(14,1,2,4)            90.0            estimate D2E/DX2                !
 ! D3    D(14,1,2,15)          -30.0            estimate D2E/DX2                !
 ! D4    D(17,1,2,3)            30.0            estimate D2E/DX2                !
 ! D5    D(17,1,2,4)           -90.0            estimate D2E/DX2                !
 ! D6    D(17,1,2,15)          150.0            estimate D2E/DX2                !
 ! D7    D(2,1,17,18)           90.0            estimate D2E/DX2                !
 ! D8    D(2,1,17,19)         -150.0            estimate D2E/DX2                !
 ! D9    D(14,1,17,18)         -90.0            estimate D2E/DX2                !
 ! D10   D(14,1,17,19)          30.0            estimate D2E/DX2                !
 ! D11   D(1,2,4,5)             60.0            estimate D2E/DX2                !
 ! D12   D(1,2,4,6)            -60.0            estimate D2E/DX2                !
 ! D13   D(1,2,4,10)           180.0            estimate D2E/DX2                !
 ! D14   D(3,2,4,5)            -60.0            estimate D2E/DX2                !
 ! D15   D(3,2,4,6)            180.0            estimate D2E/DX2                !
 ! D16   D(3,2,4,10)            60.0            estimate D2E/DX2                !
 ! D17   D(15,2,4,5)           180.0            estimate D2E/DX2                !
 ! D18   D(15,2,4,6)            60.0            estimate D2E/DX2                !
 ! D19   D(15,2,4,10)          -60.0            estimate D2E/DX2                !
 ! D20   D(1,2,15,16)          -60.0            estimate D2E/DX2                !
 ! D21   D(1,2,15,23)          180.0            estimate D2E/DX2                !
 ! D22   D(3,2,15,16)           60.0            estimate D2E/DX2                !
 ! D23   D(3,2,15,23)          -60.0            estimate D2E/DX2                !
 ! D24   D(4,2,15,16)          180.0            estimate D2E/DX2                !
 ! D25   D(4,2,15,23)           60.0            estimate D2E/DX2                !
 ! D26   D(2,4,6,7)             60.0            estimate D2E/DX2                !
 ! D27   D(2,4,6,8)            180.0            estimate D2E/DX2                !
 ! D28   D(2,4,6,9)            -60.0            estimate D2E/DX2                !
 ! D29   D(5,4,6,7)            -60.0            estimate D2E/DX2                !
 ! D30   D(5,4,6,8)             60.0            estimate D2E/DX2                !
 ! D31   D(5,4,6,9)            180.0            estimate D2E/DX2                !
 ! D32   D(10,4,6,7)           180.0            estimate D2E/DX2                !
 ! D33   D(10,4,6,8)           -60.0            estimate D2E/DX2                !
 ! D34   D(10,4,6,9)            60.0            estimate D2E/DX2                !
 ! D35   D(2,4,10,11)          180.0            estimate D2E/DX2                !
 ! D36   D(2,4,10,12)          -60.0            estimate D2E/DX2                !
 ! D37   D(2,4,10,13)           60.0            estimate D2E/DX2                !
 ! D38   D(5,4,10,11)          -60.0            estimate D2E/DX2                !
 ! D39   D(5,4,10,12)           60.0            estimate D2E/DX2                !
 ! D40   D(5,4,10,13)         -180.0            estimate D2E/DX2                !
 ! D41   D(6,4,10,11)           60.0            estimate D2E/DX2                !
 ! D42   D(6,4,10,12)          180.0            estimate D2E/DX2                !
 ! D43   D(6,4,10,13)          -60.0            estimate D2E/DX2                !
 ! D44   D(2,15,23,24)        -150.0            estimate D2E/DX2                !
 ! D45   D(2,15,23,28)          30.0            estimate D2E/DX2                !
 ! D46   D(16,15,23,24)         90.0            estimate D2E/DX2                !
 ! D47   D(16,15,23,28)        -90.0            estimate D2E/DX2                !
 ! D48   D(1,17,19,20)         180.0            estimate D2E/DX2                !
 ! D49   D(1,17,19,21)         -60.0            estimate D2E/DX2                !
 ! D50   D(1,17,19,22)          60.0            estimate D2E/DX2                !
 ! D51   D(18,17,19,20)        -60.0            estimate D2E/DX2                !
 ! D52   D(18,17,19,21)         60.0            estimate D2E/DX2                !
 ! D53   D(18,17,19,22)       -180.0            estimate D2E/DX2                !
 ! D54   D(15,23,24,25)        150.0            estimate D2E/DX2                !
 ! D55   D(15,23,24,26)        -90.0            estimate D2E/DX2                !
 ! D56   D(15,23,24,27)         30.0            estimate D2E/DX2                !
 ! D57   D(28,23,24,25)        -30.0            estimate D2E/DX2                !
 ! D58   D(28,23,24,26)         90.0            estimate D2E/DX2                !
 ! D59   D(28,23,24,27)       -150.0            estimate D2E/DX2                !
 --------------------------------------------------------------------------------
 Trust Radius=3.00D-01 FncErr=1.00D-07 GrdErr=1.00D-06
 Number of steps in this run= 145 maximum allowed number of steps= 168.
 GradGradGradGradGradGradGradGradGradGradGradGradGradGradGradGradGradGrad

 Leave Link  103 at Thu Mar 28 09:52:48 2013, MaxMem= 4294967296 cpu:       0.4
 (Enter /system/software/linux-x86_64/gaussian/g09/A.02__pgi_8.0-6__acml/l202.exe)
                          Input orientation:                          
 ---------------------------------------------------------------------
 Center     Atomic      Atomic             Coordinates (Angstroms)
 Number     Number       Type             X           Y           Z
 ---------------------------------------------------------------------
      1          6           0        0.185717   -3.397808   -0.505730
      2          6           0       -1.333604   -3.568908   -0.690089
      3          1           0       -1.643375   -4.496427   -0.255750
      4          6           0       -1.671796   -3.567318   -2.192495
      5          1           0       -1.160913   -4.374850   -2.673941
      6          6           0       -1.225957   -2.232384   -2.817619
      7          1           0       -0.170325   -2.113503   -2.689525
      8          1           0       -1.460935   -2.231279   -3.861498
      9          1           0       -1.736840   -1.424852   -2.336172
     10          6           0       -3.191117   -3.738418   -2.376854
     11          1           0       -3.426095   -3.737313   -3.420733
     12          1           0       -3.500889   -4.665937   -1.942515
     13          1           0       -3.702000   -2.930886   -1.895408
     14          8           0        0.681034   -2.245736   -0.401025
     15          7           0       -2.035471   -2.459495   -0.028663
     16          1           0       -1.815865   -2.460528    0.946925
     17          7           0        1.057374   -4.580277   -0.452062
     18          1           0        1.364281   -4.810343   -1.375576
     19          6           0        2.224043   -4.291009    0.394170
     20          1           0        2.858514   -5.151718    0.433235
     21          1           0        2.767169   -3.465915   -0.017089
     22          1           0        1.895653   -4.044838    1.382330
     23          6           0       -3.485731   -2.622818   -0.204642
     24          6           0       -4.398896   -1.384040   -0.260866
     25          1           0       -5.248104   -1.594596   -0.876831
     26          1           0       -4.727286   -1.137870    0.727294
     27          1           0       -3.855770   -0.558947   -0.672125
     28          8           0       -3.981048   -3.774890   -0.309347
 ---------------------------------------------------------------------
                    Distance matrix (angstroms):
                    1          2          3          4          5
     1  C    0.000000
     2  C    1.540000   0.000000
     3  H    2.148263   1.070000   0.000000
     4  C    2.514809   1.540000   2.148263   0.000000
     5  H    2.732978   2.148263   2.468846   1.070000   0.000000
     6  C    2.948875   2.514809   3.444314   1.540000   2.148263
     7  H    2.558352   2.732978   3.710993   2.148263   2.468846
     8  H    3.915793   3.444314   4.262112   2.148263   2.468846
     9  H    3.307461   2.732978   3.710993   2.148263   3.024610
    10  C    3.875582   2.514809   2.732978   1.540000   2.148263
    11  H    4.653783   3.444314   3.710993   2.148263   2.468846
    12  H    4.154945   2.732978   2.514809   2.148263   2.468846
    13  H    4.154945   2.732978   3.062243   2.148263   3.024610
    14  O    1.258400   2.427572   3.238764   3.239097   3.618293
    15  N    2.457987   1.470000   2.086720   2.457987   3.380966
    16  H    2.644813   2.034920   2.370879   3.331921   4.147803
    17  N    1.470000   2.606971   2.709173   3.391691   3.146387
    18  H    2.034920   3.047890   3.224678   3.380863   2.872632
    19  C    2.400500   3.788654   3.927023   4.732032   4.569274
    20  H    3.331921   4.619632   4.601208   5.470694   5.139442
    21  H    2.628174   4.156906   4.535616   4.944399   4.828546
    22  H    2.628174   3.866462   3.925807   5.072878   5.089680
    23  C    3.764412   2.400500   2.628174   2.852017   3.817307
    24  C    5.013372   3.788654   4.156906   3.991862   5.025177
    25  H    5.737220   4.388176   4.669093   4.290988   5.259709
    26  H    5.546645   4.408628   4.664417   4.874772   5.896224
    27  H    4.941704   3.927023   4.535616   4.016411   5.082385
    28  O    4.188400   2.682602   2.447081   2.986968   3.728863
                    6          7          8          9         10
     6  C    0.000000
     7  H    1.070000   0.000000
     8  H    1.070000   1.747303   0.000000
     9  H    1.070000   1.747303   1.747303   0.000000
    10  C    2.514809   3.444314   2.732978   2.732978   0.000000
    11  H    2.732978   3.710993   2.514809   3.062243   1.070000
    12  H    3.444314   4.262112   3.710993   3.710993   1.070000
    13  H    2.732978   3.710993   3.062243   2.514809   1.070000
    14  O    3.078428   2.445308   4.069781   3.203866   4.596254
    15  N    2.912931   3.267823   3.882370   2.546422   2.912931
    16  H    3.817307   4.006495   4.826952   3.443487   3.817307
    17  N    4.040057   3.549431   4.846022   4.616732   4.739539
    18  H    3.928701   3.369633   4.562151   4.690549   4.785732
    19  C    5.143542   4.470314   5.994353   5.599841   6.108019
    20  H    5.981092   5.306246   6.755097   6.532720   6.818509
    21  H    5.030867   4.195212   5.846424   5.461701   6.414353
    22  H    5.537961   4.957654   6.484861   5.821219   6.332503
    23  C    3.476588   4.174442   4.198297   3.006188   2.459648
    24  C    4.162237   4.930651   4.723768   3.375664   3.388101
    25  H    4.511219   5.416545   4.863769   3.806240   3.328248
    26  H    5.101340   5.778616   5.737735   4.290682   4.331097
    27  H    3.784105   4.479849   4.324815   2.829966   3.668365
    28  O    4.032527   4.790309   4.620766   3.829774   2.213573
                   11         12         13         14         15
    11  H    0.000000
    12  H    1.747303   0.000000
    13  H    1.747303   1.747303   0.000000
    14  O    5.311492   5.071690   4.681196   0.000000
    15  N    3.882370   3.267823   2.546422   2.750226   0.000000
    16  H    4.826952   4.006495   3.443487   2.845630   1.000000
    17  N    5.442894   4.796514   5.239788   2.365231   3.773947
    18  H    5.318060   4.900219   5.428608   2.827328   4.347295
    19  C    6.839893   6.194797   6.496929   2.682602   4.655823
    20  H    7.506659   6.806040   7.307190   3.725875   5.604686
    21  H    7.072126   6.666023   6.757550   2.447081   4.906971
    22  H    7.175305   6.368910   6.581654   2.809346   4.467432
    23  C    3.404247   2.682306   1.732157   4.188400   1.470000
    24  C    4.058201   3.795419   2.355870   5.154401   2.606971
    25  H    3.792412   3.690742   2.283332   5.983732   3.433431
    26  H    5.065208   4.591208   3.338365   5.634749   3.092577
    27  H    4.223918   4.313606   2.673230   4.847818   2.709173
    28  O    3.160714   1.921394   1.818186   4.907313   2.365231
                   16         17         18         19         20
    16  H    0.000000
    17  N    3.834841   0.000000
    18  H    4.585736   1.000000   0.000000
    19  C    4.469570   1.470000   2.034920   0.000000
    20  H    5.418137   2.086720   2.370879   1.070000   0.000000
    21  H    4.790024   2.086720   2.370879   1.070000   1.747303
    22  H    4.058939   2.086720   2.911082   1.070000   1.747303
    23  C    2.034920   4.953047   5.447841   5.978542   6.859423
    24  C    3.047890   6.326403   6.796789   7.262428   8.206532
    25  H    3.981983   6.989547   7.369763   8.044816   8.949114
    26  H    3.205313   6.833984   7.417298   7.640303   8.587305
    27  H    3.224678   6.352835   6.768910   7.213141   8.209567
    28  O    2.827328   5.104382   5.548112   6.266137   7.016174
                   21         22         23         24         25
    21  H    0.000000
    22  H    1.747303   0.000000
    23  C    6.312270   5.787912   0.000000
    24  C    7.466332   7.028605   1.540000   0.000000
    25  H    8.275602   7.882941   2.148263   1.070000   0.000000
    26  H    7.882941   7.262428   2.148263   1.070000   1.747303
    27  H    7.262428   7.032147   2.148263   1.070000   1.747303
    28  O    6.761606   6.121295   1.258400   2.427572   2.584792
                   26         27         28
    26  H    0.000000
    27  H    1.747303   0.000000
    28  O    2.930080   3.238764   0.000000
 Stoichiometry    C8H16N2O2
 Framework group  C1[X(C8H16N2O2)]
 Deg. of freedom    78
 Full point group                 C1      NOp   1
 Largest Abelian subgroup         C1      NOp   1
 Largest concise Abelian subgroup C1      NOp   1
                         Standard orientation:                         
 ---------------------------------------------------------------------
 Center     Atomic      Atomic             Coordinates (Angstroms)
 Number     Number       Type             X           Y           Z
 ---------------------------------------------------------------------
      1          6           0        1.656709   -0.155430    0.119857
      2          6           0        0.212952   -0.057510   -0.406998
      3          1           0        0.193918   -0.315335   -1.445296
      4          6           0       -0.302999    1.382158   -0.226024
      5          1           0        0.322612    2.056586   -0.772520
      6          6           0       -0.275605    1.753233    1.268350
      7          1           0        0.727526    1.685198    1.634411
      8          1           0       -0.634090    2.753522    1.394091
      9          1           0       -0.901215    1.078805    1.814845
     10          6           0       -1.746757    1.480078   -0.752879
     11          1           0       -2.105242    2.480366   -0.627137
     12          1           0       -1.765791    1.222252   -1.791177
     13          1           0       -2.372368    0.805649   -0.206383
     14          8           0        1.868260   -0.455276    1.323564
     15          7           0       -0.646532   -0.984061    0.343796
     16          1           0       -0.311499   -1.918910    0.226280
     17          7           0        2.787718    0.101366   -0.783346
     18          1           0        3.021651    1.073251   -0.756600
     19          6           0        3.947434   -0.693750   -0.354686
     20          1           0        4.770685   -0.506830   -1.012119
     21          1           0        4.218639   -0.419510    0.643383
     22          1           0        3.697126   -1.733666   -0.383303
     23          6           0       -2.024665   -0.890592   -0.159111
     24          6           0       -3.209531   -1.159616    0.787101
     25          1           0       -4.053678   -0.580859    0.475084
     26          1           0       -3.459839   -2.199533    0.758484
     27          1           0       -2.938326   -0.885376    1.785170
     28          8           0       -2.236216   -0.590746   -1.362818
 ---------------------------------------------------------------------
 Rotational constants (GHZ):      1.6542755      0.5460364      0.5166720
 Leave Link  202 at Thu Mar 28 09:52:48 2013, MaxMem= 4294967296 cpu:       0.1
 (Enter /system/software/linux-x86_64/gaussian/g09/A.02__pgi_8.0-6__acml/l301.exe)
 Standard basis: CC-pVTZ (5D, 7F)
 Ernie: Thresh=  0.10000D-02 Tol=  0.10000D-05 Strict=F.
 Ernie:  36 primitive shells out of 440 were deleted.
 There are   584 symmetry adapted basis functions of A   symmetry.
 Integral buffers will be    131072 words long.
 Raffenetti 2 integral format.
 Two-electron integral symmetry is turned on.
   584 basis functions,   896 primitive gaussians,   660 cartesian basis functions
    47 alpha electrons       47 beta electrons
       nuclear repulsion energy       776.1430836053 Hartrees.
 IExCor= 4235 DFT=T Ex+Corr=M06 ExCW=0 ScaHFX=  0.270000
 ScaDFX=  1.000000  1.000000  1.000000  1.000000 ScalE2=  1.000000  1.000000
 IRadAn=      5 IRanWt=     -1 IRanGd=            0 ICorTp=0
 NAtoms=   28 NActive=   28 NUniq=   28 SFac= 7.50D-01 NAtFMM=   80 NAOKFM=F Big=F
 Leave Link  301 at Thu Mar 28 09:52:48 2013, MaxMem= 4294967296 cpu:       2.2
 (Enter /system/software/linux-x86_64/gaussian/g09/A.02__pgi_8.0-6__acml/l302.exe)
 NPDir=0 NMtPBC=     1 NCelOv=     1 NCel=       1 NClECP=     1 NCelD=      1
         NCelK=      1 NCelE2=     1 NClLst=     1 CellRange=     0.0.
 One-electron integrals computed using PRISM.
 NBasis=   584 RedAO= T  NBF=   584
 NBsUse=   584 1.00D-06 NBFU=   584
 Precomputing XC quadrature grid using
 IXCGrd= 2 IRadAn=           5 IRanWt=          -1 IRanGd=           0 AccXCQ= 1.00D-10.
 NRdTot=    2352 NPtTot=      632590 NUsed=      649431 NTot=      649463
 NSgBfM=   660   660   660   660   660 NAtAll=    28    28.
 Leave Link  302 at Thu Mar 28 09:52:50 2013, MaxMem= 4294967296 cpu:      31.0
 (Enter /system/software/linux-x86_64/gaussian/g09/A.02__pgi_8.0-6__acml/l303.exe)
 DipDrv:  MaxL=1.
 Leave Link  303 at Thu Mar 28 09:52:50 2013, MaxMem= 4294967296 cpu:       3.3
 (Enter /system/software/linux-x86_64/gaussian/g09/A.02__pgi_8.0-6__acml/l401.exe)
 Harris functional with IExCor= 1009 diagonalized for initial guess.
 ExpMin= 1.03D-01 ExpMax= 1.53D+04 ExpMxC= 5.22D+02 IAcc=3 IRadAn=         5 AccDes= 0.00D+00
 HarFok:  IExCor= 1009 AccDes= 0.00D+00 IRadAn=         5 IDoV= 1
 ScaDFX=  1.000000  1.000000  1.000000  1.000000
 FoFCou: FMM=F IPFlag=           0 FMFlag=      100000 FMFlg1=           0
         NFxFlg=           0 DoJE=T BraDBF=F KetDBF=T FulRan=T
         Omega=  0.000000  0.000000  1.000000  0.000000  0.000000 ICntrl=     500 IOpCl=  0
         NMat0=    1 NMatS0=    1 NMatT0=    0 NMatD0=    1 NMtDS0=    0 NMtDT0=    0
         I1Cent=           4 NGrid=           0.
 Petite list used in FoFCou.
 Harris En= -574.196621151296    
 Initial guess orbital symmetries:
       Occupied  (A) (A) (A) (A) (A) (A) (A) (A) (A) (A) (A) (A)
                 (A) (A) (A) (A) (A) (A) (A) (A) (A) (A) (A) (A)
                 (A) (A) (A) (A) (A) (A) (A) (A) (A) (A) (A) (A)
                 (A) (A) (A) (A) (A) (A) (A) (A) (A) (A) (A)
       Virtual   (A) (A) (A) (A) (A) (A) (A) (A) (A) (A) (A) (A)
                 (A) (A) (A) (A) (A) (A) (A) (A) (A) (A) (A) (A)
                 (A) (A) (A) (A) (A) (A) (A) (A) (A) (A) (A) (A)
                 (A) (A) (A) (A) (A) (A) (A) (A) (A) (A) (A) (A)
                 (A) (A) (A) (A) (A) (A) (A) (A) (A) (A) (A) (A)
                 (A) (A) (A) (A) (A) (A) (A) (A) (A) (A) (A) (A)
                 (A) (A) (A) (A) (A) (A) (A) (A) (A) (A) (A) (A)
                 (A) (A) (A) (A) (A) (A) (A) (A) (A) (A) (A) (A)
                 (A) (A) (A) (A) (A) (A) (A) (A) (A) (A) (A) (A)
                 (A) (A) (A) (A) (A) (A) (A) (A) (A) (A) (A) (A)
                 (A) (A) (A) (A) (A) (A) (A) (A) (A) (A) (A) (A)
                 (A) (A) (A) (A) (A) (A) (A) (A) (A) (A) (A) (A)
                 (A) (A) (A) (A) (A) (A) (A) (A) (A) (A) (A) (A)
                 (A) (A) (A) (A) (A) (A) (A) (A) (A) (A) (A) (A)
                 (A) (A) (A) (A) (A) (A) (A) (A) (A) (A) (A) (A)
                 (A) (A) (A) (A) (A) (A) (A) (A) (A) (A) (A) (A)
                 (A) (A) (A) (A) (A) (A) (A) (A) (A) (A) (A) (A)
                 (A) (A) (A) (A) (A) (A) (A) (A) (A) (A) (A) (A)
                 (A) (A) (A) (A) (A) (A) (A) (A) (A) (A) (A) (A)
                 (A) (A) (A) (A) (A) (A) (A) (A) (A) (A) (A) (A)
                 (A) (A) (A) (A) (A) (A) (A) (A) (A) (A) (A) (A)
                 (A) (A) (A) (A) (A) (A) (A) (A) (A) (A) (A) (A)
                 (A) (A) (A) (A) (A) (A) (A) (A) (A) (A) (A) (A)
                 (A) (A) (A) (A) (A) (A) (A) (A) (A) (A) (A) (A)
                 (A) (A) (A) (A) (A) (A) (A) (A) (A) (A) (A) (A)
                 (A) (A) (A) (A) (A) (A) (A) (A) (A) (A) (A) (A)
                 (A) (A) (A) (A) (A) (A) (A) (A) (A) (A) (A) (A)
                 (A) (A) (A) (A) (A) (A) (A) (A) (A) (A) (A) (A)
                 (A) (A) (A) (A) (A) (A) (A) (A) (A) (A) (A) (A)
                 (A) (A) (A) (A) (A) (A) (A) (A) (A) (A) (A) (A)
                 (A) (A) (A) (A) (A) (A) (A) (A) (A) (A) (A) (A)
                 (A) (A) (A) (A) (A) (A) (A) (A) (A) (A) (A) (A)
                 (A) (A) (A) (A) (A) (A) (A) (A) (A) (A) (A) (A)
                 (A) (A) (A) (A) (A) (A) (A) (A) (A) (A) (A) (A)
                 (A) (A) (A) (A) (A) (A) (A) (A) (A) (A) (A) (A)
                 (A) (A) (A) (A) (A) (A) (A) (A) (A) (A) (A) (A)
                 (A) (A) (A) (A) (A) (A) (A) (A) (A) (A) (A) (A)
                 (A) (A) (A) (A) (A) (A) (A) (A) (A) (A) (A) (A)
                 (A) (A) (A) (A) (A) (A) (A) (A) (A) (A) (A) (A)
                 (A) (A) (A) (A) (A) (A) (A) (A) (A) (A) (A) (A)
                 (A) (A) (A) (A) (A) (A) (A) (A) (A) (A) (A) (A)
                 (A) (A) (A) (A) (A) (A) (A) (A) (A) (A) (A) (A)
                 (A) (A) (A) (A) (A) (A) (A) (A) (A) (A) (A) (A)
                 (A) (A) (A) (A) (A) (A) (A) (A) (A) (A) (A) (A)
                 (A) (A) (A) (A) (A) (A) (A) (A) (A)
 The electronic state of the initial guess is 1-A.
 Leave Link  401 at Thu Mar 28 09:52:57 2013, MaxMem= 4294967296 cpu:     105.2
 (Enter /system/software/linux-x86_64/gaussian/g09/A.02__pgi_8.0-6__acml/l502.exe)
 Closed shell SCF:
 Requested convergence on RMS density matrix=1.00D-08 within 128 cycles.
 Requested convergence on MAX density matrix=1.00D-06.
 Requested convergence on             energy=1.00D-06.
 No special actions if energy rises.
 Using DIIS extrapolation, IDIIS=  1040.
 Integral symmetry usage will be decided dynamically.
       649166 words used for storage of precomputed grid.
 IEnd=     1989488 IEndB=     1989488 NGot=  4294967296 MDV=  4293430709
 LenX=  4293430709 LenY=  4292994449
 Fock matrices will be formed incrementally for  20 cycles.
 Integral accuracy reduced to 1.0D-05 until final iterations.

 Cycle   1  Pass 0  IDiag  1:
 FoFCou: FMM=F IPFlag=           0 FMFlag=      100000 FMFlg1=           0
         NFxFlg=           0 DoJE=F BraDBF=F KetDBF=F FulRan=T
         Omega=  0.000000  0.000000  1.000000  0.000000  0.000000 ICntrl=       0 IOpCl=  0
         NMat0=    1 NMatS0=    1 NMatT0=    0 NMatD0=    1 NMtDS0=    0 NMtDT0=    0
         I1Cent=           0 NGrid=           0.
 Symmetry not used in FoFCou.
 E= -573.750183473348    
 DIIS: error= 1.82D-02 at cycle   1 NSaved=   1.
 NSaved= 1 IEnMin= 1 EnMin= -573.750183473348     IErMin= 1 ErrMin= 1.82D-02
 ErrMax= 1.82D-02 EMaxC= 1.00D-01 BMatC= 4.52D-01 BMatP= 4.52D-01
 IDIUse=3 WtCom= 8.18D-01 WtEn= 1.82D-01
 Coeff-Com:  0.100D+01
 Coeff-En:   0.100D+01
 Coeff:      0.100D+01
 Gap=     0.178 Goal=   None    Shift=    0.000
 GapD=    0.178 DampG=1.000 DampE=0.500 DampFc=0.5000 IDamp=-1.
 Damping current iteration by 5.00D-01
 RMSDP=2.32D-03 MaxDP=1.78D-01              OVMax= 2.64D-01

 Cycle   2  Pass 0  IDiag  1:
 RMSU=  8.20D-04    CP:  9.96D-01
 E= -573.881704243721     Delta-E=       -0.131520770373 Rises=F Damp=T
 DIIS: error= 5.15D-03 at cycle   2 NSaved=   2.
 NSaved= 2 IEnMin= 2 EnMin= -573.881704243721     IErMin= 2 ErrMin= 5.15D-03
 ErrMax= 5.15D-03 EMaxC= 1.00D-01 BMatC= 5.52D-02 BMatP= 4.52D-01
 IDIUse=3 WtCom= 9.49D-01 WtEn= 5.15D-02
 Coeff-Com:  0.197D+00 0.803D+00
 Coeff-En:   0.294D+00 0.706D+00
 Coeff:      0.202D+00 0.798D+00
 Gap=     0.263 Goal=   None    Shift=    0.000
 RMSDP=7.26D-04 MaxDP=3.46D-02 DE=-1.32D-01 OVMax= 1.75D-01

 Cycle   3  Pass 0  IDiag  1:
 RMSU=  4.66D-04    CP:  9.99D-01  7.40D-01
 E= -574.104943509096     Delta-E=       -0.223239265376 Rises=F Damp=F
 DIIS: error= 7.05D-03 at cycle   3 NSaved=   3.
 NSaved= 3 IEnMin= 3 EnMin= -574.104943509096     IErMin= 2 ErrMin= 5.15D-03
 ErrMax= 7.05D-03 EMaxC= 1.00D-01 BMatC= 6.28D-02 BMatP= 5.52D-02
 IDIUse=3 WtCom= 1.06D-01 WtEn= 8.94D-01
 Coeff-Com:  0.721D-01 0.515D+00 0.413D+00
 Coeff-En:   0.000D+00 0.000D+00 0.100D+01
 Coeff:      0.767D-02 0.548D-01 0.938D+00
 Gap=     0.253 Goal=   None    Shift=    0.000
 RMSDP=8.11D-04 MaxDP=5.83D-02 DE=-2.23D-01 OVMax= 2.15D-01

 Cycle   4  Pass 0  IDiag  1:
 RMSU=  4.78D-04    CP:  1.00D+00  9.70D-01  4.54D-01
 E= -573.948552002150     Delta-E=        0.156391506946 Rises=F Damp=F
 DIIS: error= 1.36D-02 at cycle   4 NSaved=   4.
 NSaved= 4 IEnMin= 3 EnMin= -574.104943509096     IErMin= 2 ErrMin= 5.15D-03
 ErrMax= 1.36D-02 EMaxC= 1.00D-01 BMatC= 2.74D-01 BMatP= 5.52D-02
 IDIUse=2 WtCom= 0.00D+00 WtEn= 1.00D+00
 Coeff-En:   0.000D+00 0.000D+00 0.752D+00 0.248D+00
 Coeff:      0.000D+00 0.000D+00 0.752D+00 0.248D+00
 Gap=     0.232 Goal=   None    Shift=    0.000
 RMSDP=4.42D-04 MaxDP=3.19D-02 DE= 1.56D-01 OVMax= 8.81D-02

 Cycle   5  Pass 0  IDiag  1:
 RMSU=  5.76D-05    CP:  1.00D+00  7.88D-01  7.56D-01  5.21D-01
 E= -574.142956400725     Delta-E=       -0.194404398575 Rises=F Damp=F
 DIIS: error= 3.06D-03 at cycle   5 NSaved=   5.
 NSaved= 5 IEnMin= 5 EnMin= -574.142956400725     IErMin= 5 ErrMin= 3.06D-03
 ErrMax= 3.06D-03 EMaxC= 1.00D-01 BMatC= 1.45D-02 BMatP= 5.52D-02
 IDIUse=3 WtCom= 9.69D-01 WtEn= 3.06D-02
 Coeff-Com: -0.271D-02 0.206D-01 0.314D+00-0.137D-01 0.682D+00
 Coeff-En:   0.000D+00 0.000D+00 0.231D+00 0.000D+00 0.769D+00
 Coeff:     -0.263D-02 0.200D-01 0.312D+00-0.133D-01 0.684D+00
 Gap=     0.233 Goal=   None    Shift=    0.000
 RMSDP=1.24D-04 MaxDP=7.52D-03 DE=-1.94D-01 OVMax= 2.15D-02

 Cycle   6  Pass 0  IDiag  1:
 RMSU=  2.13D-05    CP:  1.00D+00  7.76D-01  8.46D-01  3.70D-01  8.15D-01
 E= -574.154076851825     Delta-E=       -0.011120451100 Rises=F Damp=F
 DIIS: error= 5.85D-04 at cycle   6 NSaved=   6.
 NSaved= 6 IEnMin= 6 EnMin= -574.154076851825     IErMin= 6 ErrMin= 5.85D-04
 ErrMax= 5.85D-04 EMaxC= 1.00D-01 BMatC= 2.22D-04 BMatP= 1.45D-02
 IDIUse=3 WtCom= 9.94D-01 WtEn= 5.85D-03
 Coeff-Com: -0.692D-02 0.130D-01 0.137D+00-0.426D-01 0.451D+00 0.449D+00
 Coeff-En:   0.000D+00 0.000D+00 0.000D+00 0.000D+00 0.000D+00 0.100D+01
 Coeff:     -0.688D-02 0.129D-01 0.136D+00-0.423D-01 0.448D+00 0.452D+00
 Gap=     0.230 Goal=   None    Shift=    0.000
 RMSDP=1.77D-05 MaxDP=1.41D-03 DE=-1.11D-02 OVMax= 3.44D-03

 Cycle   7  Pass 0  IDiag  1:
 RMSU=  8.42D-06    CP:  1.00D+00  7.77D-01  8.49D-01  3.74D-01  8.83D-01
                    CP:  6.25D-01
 E= -574.154225095376     Delta-E=       -0.000148243551 Rises=F Damp=F
 DIIS: error= 1.29D-04 at cycle   7 NSaved=   7.
 NSaved= 7 IEnMin= 7 EnMin= -574.154225095376     IErMin= 7 ErrMin= 1.29D-04
 ErrMax= 1.29D-04 EMaxC= 1.00D-01 BMatC= 2.00D-05 BMatP= 2.22D-04
 IDIUse=3 WtCom= 9.99D-01 WtEn= 1.29D-03
 Coeff-Com: -0.365D-02 0.552D-02 0.364D-01-0.242D-01 0.170D+00 0.272D+00
 Coeff-Com:  0.544D+00
 Coeff-En:   0.000D+00 0.000D+00 0.000D+00 0.000D+00 0.000D+00 0.477D-01
 Coeff-En:   0.952D+00
 Coeff:     -0.364D-02 0.551D-02 0.363D-01-0.241D-01 0.169D+00 0.272D+00
 Coeff:      0.545D+00
 Gap=     0.231 Goal=   None    Shift=    0.000
 RMSDP=6.05D-06 MaxDP=3.48D-04 DE=-1.48D-04 OVMax= 9.64D-04

 Initial convergence to 1.0D-05 achieved.  Increase integral accuracy.
 Cycle   8  Pass 1  IDiag  1:
 E= -574.154246061458     Delta-E=       -0.000020966082 Rises=F Damp=F
 DIIS: error= 2.76D-05 at cycle   1 NSaved=   1.
 NSaved= 1 IEnMin= 1 EnMin= -574.154246061458     IErMin= 1 ErrMin= 2.76D-05
 ErrMax= 2.76D-05 EMaxC= 1.00D-01 BMatC= 2.36D-06 BMatP= 2.36D-06
 IDIUse=1 WtCom= 1.00D+00 WtEn= 0.00D+00
 Coeff-Com:  0.100D+01
 Coeff:      0.100D+01
 Gap=     0.230 Goal=   None    Shift=    0.000
 RMSDP=6.05D-06 MaxDP=3.48D-04 DE=-2.10D-05 OVMax= 4.16D-04

 Cycle   9  Pass 1  IDiag  1:
 RMSU=  7.95D-06    CP:  1.00D+00
 E= -574.154246094857     Delta-E=       -0.000000033399 Rises=F Damp=F
 DIIS: error= 3.80D-05 at cycle   2 NSaved=   2.
 NSaved= 2 IEnMin= 2 EnMin= -574.154246094857     IErMin= 1 ErrMin= 2.76D-05
 ErrMax= 3.80D-05 EMaxC= 1.00D-01 BMatC= 2.20D-06 BMatP= 2.36D-06
 IDIUse=1 WtCom= 1.00D+00 WtEn= 0.00D+00
 Coeff-Com:  0.489D+00 0.511D+00
 Coeff:      0.489D+00 0.511D+00
 Gap=     0.230 Goal=   None    Shift=    0.000
 RMSDP=2.48D-06 MaxDP=1.13D-04 DE=-3.34D-08 OVMax= 3.12D-04

 Cycle  10  Pass 1  IDiag  1:
 RMSU=  1.70D-06    CP:  1.00D+00  9.44D-01
 E= -574.154247599620     Delta-E=       -0.000001504763 Rises=F Damp=F
 DIIS: error= 2.08D-05 at cycle   3 NSaved=   3.
 NSaved= 3 IEnMin= 3 EnMin= -574.154247599620     IErMin= 3 ErrMin= 2.08D-05
 ErrMax= 2.08D-05 EMaxC= 1.00D-01 BMatC= 4.25D-07 BMatP= 2.20D-06
 IDIUse=1 WtCom= 1.00D+00 WtEn= 0.00D+00
 Coeff-Com:  0.883D-01 0.301D+00 0.610D+00
 Coeff:      0.883D-01 0.301D+00 0.610D+00
 Gap=     0.230 Goal=   None    Shift=    0.000
 RMSDP=9.89D-07 MaxDP=6.51D-05 DE=-1.50D-06 OVMax= 1.54D-04

 Cycle  11  Pass 1  IDiag  1:
 RMSU=  4.72D-07    CP:  1.00D+00  9.76D-01  7.37D-01
 E= -574.154247814691     Delta-E=       -0.000000215071 Rises=F Damp=F
 DIIS: error= 1.26D-05 at cycle   4 NSaved=   4.
 NSaved= 4 IEnMin= 4 EnMin= -574.154247814691     IErMin= 4 ErrMin= 1.26D-05
 ErrMax= 1.26D-05 EMaxC= 1.00D-01 BMatC= 1.43D-07 BMatP= 4.25D-07
 IDIUse=1 WtCom= 1.00D+00 WtEn= 0.00D+00
 Coeff-Com: -0.780D-02 0.141D+00 0.435D+00 0.432D+00
 Coeff:     -0.780D-02 0.141D+00 0.435D+00 0.432D+00
 Gap=     0.230 Goal=   None    Shift=    0.000
 RMSDP=3.81D-07 MaxDP=2.09D-05 DE=-2.15D-07 OVMax= 6.08D-05

 Cycle  12  Pass 1  IDiag  1:
 RMSU=  1.51D-07    CP:  1.00D+00  9.78D-01  7.73D-01  5.48D-01
 E= -574.154247919906     Delta-E=       -0.000000105215 Rises=F Damp=F
 DIIS: error= 1.10D-06 at cycle   5 NSaved=   5.
 NSaved= 5 IEnMin= 5 EnMin= -574.154247919906     IErMin= 5 ErrMin= 1.10D-06
 ErrMax= 1.10D-06 EMaxC= 1.00D-01 BMatC= 1.21D-09 BMatP= 1.43D-07
 IDIUse=1 WtCom= 1.00D+00 WtEn= 0.00D+00
 Coeff-Com: -0.624D-02 0.489D-01 0.165D+00 0.178D+00 0.614D+00
 Coeff:     -0.624D-02 0.489D-01 0.165D+00 0.178D+00 0.614D+00
 Gap=     0.230 Goal=   None    Shift=    0.000
 RMSDP=6.71D-08 MaxDP=3.19D-06 DE=-1.05D-07 OVMax= 8.00D-06

 Cycle  13  Pass 1  IDiag  1:
 RMSU=  4.45D-08    CP:  1.00D+00  9.79D-01  7.75D-01  5.74D-01  9.50D-01
 E= -574.154247920768     Delta-E=       -0.000000000861 Rises=F Damp=F
 DIIS: error= 3.66D-07 at cycle   6 NSaved=   6.
 NSaved= 6 IEnMin= 6 EnMin= -574.154247920768     IErMin= 6 ErrMin= 3.66D-07
 ErrMax= 3.66D-07 EMaxC= 1.00D-01 BMatC= 2.45D-10 BMatP= 1.21D-09
 IDIUse=1 WtCom= 1.00D+00 WtEn= 0.00D+00
 Coeff-Com: -0.203D-02 0.390D-02 0.215D-01 0.241D-01 0.309D+00 0.643D+00
 Coeff:     -0.203D-02 0.390D-02 0.215D-01 0.241D-01 0.309D+00 0.643D+00
 Gap=     0.230 Goal=   None    Shift=    0.000
 RMSDP=2.90D-08 MaxDP=1.67D-06 DE=-8.61D-10 OVMax= 4.29D-06

 Cycle  14  Pass 1  IDiag  1:
 RMSU=  1.59D-08    CP:  1.00D+00  9.79D-01  7.78D-01  5.73D-01  1.02D+00
                    CP:  8.56D-01
 E= -574.154247920920     Delta-E=       -0.000000000152 Rises=F Damp=F
 DIIS: error= 2.26D-07 at cycle   7 NSaved=   7.
 NSaved= 7 IEnMin= 7 EnMin= -574.154247920920     IErMin= 7 ErrMin= 2.26D-07
 ErrMax= 2.26D-07 EMaxC= 1.00D-01 BMatC= 7.54D-11 BMatP= 2.45D-10
 IDIUse=1 WtCom= 1.00D+00 WtEn= 0.00D+00
 Coeff-Com: -0.475D-03-0.320D-02-0.499D-02-0.643D-02 0.126D+00 0.418D+00
 Coeff-Com:  0.472D+00
 Coeff:     -0.475D-03-0.320D-02-0.499D-02-0.643D-02 0.126D+00 0.418D+00
 Coeff:      0.472D+00
 Gap=     0.230 Goal=   None    Shift=    0.000
 RMSDP=1.23D-08 MaxDP=7.48D-07 DE=-1.52D-10 OVMax= 2.05D-06

 Cycle  15  Pass 1  IDiag  1:
 RMSU=  6.04D-09    CP:  1.00D+00  9.79D-01  7.78D-01  5.75D-01  1.04D+00
                    CP:  9.04D-01  7.01D-01
 E= -574.154247920971     Delta-E=       -0.000000000051 Rises=F Damp=F
 DIIS: error= 6.53D-08 at cycle   8 NSaved=   8.
 NSaved= 8 IEnMin= 8 EnMin= -574.154247920971     IErMin= 8 ErrMin= 6.53D-08
 ErrMax= 6.53D-08 EMaxC= 1.00D-01 BMatC= 8.28D-12 BMatP= 7.54D-11
 IDIUse=1 WtCom= 1.00D+00 WtEn= 0.00D+00
 Coeff-Com:  0.849D-04-0.283D-02-0.722D-02-0.928D-02 0.133D-01 0.118D+00
 Coeff-Com:  0.283D+00 0.605D+00
 Coeff:      0.849D-04-0.283D-02-0.722D-02-0.928D-02 0.133D-01 0.118D+00
 Coeff:      0.283D+00 0.605D+00
 Gap=     0.230 Goal=   None    Shift=    0.000
 RMSDP=3.94D-09 MaxDP=1.99D-07 DE=-5.14D-11 OVMax= 4.22D-07

 SCF Done:  E(RM06) =  -574.154247921     A.U. after   15 cycles
             Convg  =    0.3943D-08             -V/T =  2.0071
 KE= 5.701334075921D+02 PE=-2.891058690709D+03 EE= 9.706279515909D+02
 Leave Link  502 at Thu Mar 28 10:09:11 2013, MaxMem= 4294967296 cpu:   15514.3
 (Enter /system/software/linux-x86_64/gaussian/g09/A.02__pgi_8.0-6__acml/l601.exe)
 Copying SCF densities to generalized density rwf, IOpCl= 0 IROHF=0.

 **********************************************************************

            Population analysis using the SCF density.

 **********************************************************************

 Orbital symmetries:
       Occupied  (A) (A) (A) (A) (A) (A) (A) (A) (A) (A) (A) (A)
                 (A) (A) (A) (A) (A) (A) (A) (A) (A) (A) (A) (A)
                 (A) (A) (A) (A) (A) (A) (A) (A) (A) (A) (A) (A)
                 (A) (A) (A) (A) (A) (A) (A) (A) (A) (A) (A)
       Virtual   (A) (A) (A) (A) (A) (A) (A) (A) (A) (A) (A) (A)
                 (A) (A) (A) (A) (A) (A) (A) (A) (A) (A) (A) (A)
                 (A) (A) (A) (A) (A) (A) (A) (A) (A) (A) (A) (A)
                 (A) (A) (A) (A) (A) (A) (A) (A) (A) (A) (A) (A)
                 (A) (A) (A) (A) (A) (A) (A) (A) (A) (A) (A) (A)
                 (A) (A) (A) (A) (A) (A) (A) (A) (A) (A) (A) (A)
                 (A) (A) (A) (A) (A) (A) (A) (A) (A) (A) (A) (A)
                 (A) (A) (A) (A) (A) (A) (A) (A) (A) (A) (A) (A)
                 (A) (A) (A) (A) (A) (A) (A) (A) (A) (A) (A) (A)
                 (A) (A) (A) (A) (A) (A) (A) (A) (A) (A) (A) (A)
                 (A) (A) (A) (A) (A) (A) (A) (A) (A) (A) (A) (A)
                 (A) (A) (A) (A) (A) (A) (A) (A) (A) (A) (A) (A)
                 (A) (A) (A) (A) (A) (A) (A) (A) (A) (A) (A) (A)
                 (A) (A) (A) (A) (A) (A) (A) (A) (A) (A) (A) (A)
                 (A) (A) (A) (A) (A) (A) (A) (A) (A) (A) (A) (A)
                 (A) (A) (A) (A) (A) (A) (A) (A) (A) (A) (A) (A)
                 (A) (A) (A) (A) (A) (A) (A) (A) (A) (A) (A) (A)
                 (A) (A) (A) (A) (A) (A) (A) (A) (A) (A) (A) (A)
                 (A) (A) (A) (A) (A) (A) (A) (A) (A) (A) (A) (A)
                 (A) (A) (A) (A) (A) (A) (A) (A) (A) (A) (A) (A)
                 (A) (A) (A) (A) (A) (A) (A) (A) (A) (A) (A) (A)
                 (A) (A) (A) (A) (A) (A) (A) (A) (A) (A) (A) (A)
                 (A) (A) (A) (A) (A) (A) (A) (A) (A) (A) (A) (A)
                 (A) (A) (A) (A) (A) (A) (A) (A) (A) (A) (A) (A)
                 (A) (A) (A) (A) (A) (A) (A) (A) (A) (A) (A) (A)
                 (A) (A) (A) (A) (A) (A) (A) (A) (A) (A) (A) (A)
                 (A) (A) (A) (A) (A) (A) (A) (A) (A) (A) (A) (A)
                 (A) (A) (A) (A) (A) (A) (A) (A) (A) (A) (A) (A)
                 (A) (A) (A) (A) (A) (A) (A) (A) (A) (A) (A) (A)
                 (A) (A) (A) (A) (A) (A) (A) (A) (A) (A) (A) (A)
                 (A) (A) (A) (A) (A) (A) (A) (A) (A) (A) (A) (A)
                 (A) (A) (A) (A) (A) (A) (A) (A) (A) (A) (A) (A)
                 (A) (A) (A) (A) (A) (A) (A) (A) (A) (A) (A) (A)
                 (A) (A) (A) (A) (A) (A) (A) (A) (A) (A) (A) (A)
                 (A) (A) (A) (A) (A) (A) (A) (A) (A) (A) (A) (A)
                 (A) (A) (A) (A) (A) (A) (A) (A) (A) (A) (A) (A)
                 (A) (A) (A) (A) (A) (A) (A) (A) (A) (A) (A) (A)
                 (A) (A) (A) (A) (A) (A) (A) (A) (A) (A) (A) (A)
                 (A) (A) (A) (A) (A) (A) (A) (A) (A) (A) (A) (A)
                 (A) (A) (A) (A) (A) (A) (A) (A) (A) (A) (A) (A)
                 (A) (A) (A) (A) (A) (A) (A) (A) (A) (A) (A) (A)
                 (A) (A) (A) (A) (A) (A) (A) (A) (A) (A) (A) (A)
                 (A) (A) (A) (A) (A) (A) (A) (A) (A) (A) (A) (A)
                 (A) (A) (A) (A) (A) (A) (A) (A) (A) (A) (A) (A)
                 (A) (A) (A) (A) (A) (A) (A) (A) (A)
 The electronic state is 1-A.
 Alpha  occ. eigenvalues --  -19.21131 -19.20082 -14.40758 -14.40489 -10.37287
 Alpha  occ. eigenvalues --  -10.36580 -10.28735 -10.25630 -10.25379 -10.25199
 Alpha  occ. eigenvalues --  -10.21410 -10.20841  -1.06574  -1.05585  -0.93264
 Alpha  occ. eigenvalues --   -0.92091  -0.81802  -0.76926  -0.72742  -0.69775
 Alpha  occ. eigenvalues --   -0.68517  -0.60705  -0.58465  -0.57506  -0.53161
 Alpha  occ. eigenvalues --   -0.51288  -0.49888  -0.47810  -0.47447  -0.45852
 Alpha  occ. eigenvalues --   -0.45169  -0.44592  -0.44138  -0.42716  -0.41854
 Alpha  occ. eigenvalues --   -0.41235  -0.40213  -0.40008  -0.37789  -0.36632
 Alpha  occ. eigenvalues --   -0.35416  -0.34479  -0.31231  -0.28746  -0.28397
 Alpha  occ. eigenvalues --   -0.26880  -0.26656
 Alpha virt. eigenvalues --   -0.03613  -0.03106   0.02227   0.03433   0.05299
 Alpha virt. eigenvalues --    0.06341   0.07217   0.07732   0.09243   0.09580
 Alpha virt. eigenvalues --    0.10224   0.10993   0.11538   0.11848   0.12743
 Alpha virt. eigenvalues --    0.14164   0.15486   0.16026   0.16562   0.17317
 Alpha virt. eigenvalues --    0.18472   0.19249   0.20409   0.21445   0.22474
 Alpha virt. eigenvalues --    0.23319   0.24053   0.25434   0.26022   0.26794
 Alpha virt. eigenvalues --    0.27556   0.28955   0.29663   0.30156   0.31859
 Alpha virt. eigenvalues --    0.32453   0.33454   0.33732   0.35089   0.35494
 Alpha virt. eigenvalues --    0.35908   0.37751   0.37894   0.39147   0.39402
 Alpha virt. eigenvalues --    0.39956   0.40448   0.40894   0.40960   0.41750
 Alpha virt. eigenvalues --    0.42779   0.42938   0.43299   0.43873   0.44324
 Alpha virt. eigenvalues --    0.44763   0.44953   0.45741   0.45922   0.46771
 Alpha virt. eigenvalues --    0.46961   0.47912   0.48399   0.49540   0.50140
 Alpha virt. eigenvalues --    0.50730   0.51632   0.52143   0.53072   0.54804
 Alpha virt. eigenvalues --    0.56629   0.56815   0.57300   0.58752   0.59686
 Alpha virt. eigenvalues --    0.60168   0.61826   0.64153   0.64890   0.67067
 Alpha virt. eigenvalues --    0.68096   0.70169   0.70831   0.71707   0.72331
 Alpha virt. eigenvalues --    0.74005   0.74945   0.76024   0.79336   0.80489
 Alpha virt. eigenvalues --    0.81107   0.82451   0.83314   0.84040   0.84576
 Alpha virt. eigenvalues --    0.85769   0.86485   0.87066   0.87573   0.89115
 Alpha virt. eigenvalues --    0.89733   0.90067   0.91774   0.92506   0.93140
 Alpha virt. eigenvalues --    0.94348   0.95349   0.96207   0.96599   0.97057
 Alpha virt. eigenvalues --    0.99059   0.99380   0.99963   1.00880   1.01729
 Alpha virt. eigenvalues --    1.03196   1.04292   1.05338   1.06227   1.06820
 Alpha virt. eigenvalues --    1.07038   1.08379   1.08945   1.09259   1.11113
 Alpha virt. eigenvalues --    1.11975   1.12459   1.13444   1.14970   1.15661
 Alpha virt. eigenvalues --    1.16993   1.17181   1.19005   1.19506   1.20915
 Alpha virt. eigenvalues --    1.21339   1.21471   1.22491   1.23499   1.24056
 Alpha virt. eigenvalues --    1.24390   1.25025   1.25958   1.26618   1.27190
 Alpha virt. eigenvalues --    1.28613   1.29372   1.29827   1.30345   1.31726
 Alpha virt. eigenvalues --    1.32467   1.33173   1.35983   1.36831   1.37370
 Alpha virt. eigenvalues --    1.38196   1.39665   1.40509   1.41342   1.43340
 Alpha virt. eigenvalues --    1.44162   1.44829   1.46352   1.47518   1.48738
 Alpha virt. eigenvalues --    1.49707   1.50366   1.50942   1.52116   1.53173
 Alpha virt. eigenvalues --    1.54403   1.54833   1.56087   1.59002   1.59593
 Alpha virt. eigenvalues --    1.60865   1.62920   1.64923   1.66304   1.67067
 Alpha virt. eigenvalues --    1.69927   1.71322   1.73226   1.75283   1.78305
 Alpha virt. eigenvalues --    1.80242   1.80957   1.81942   1.84308   1.85321
 Alpha virt. eigenvalues --    1.92484   1.94855   1.95613   1.99170   2.02964
 Alpha virt. eigenvalues --    2.05256   2.06743   2.12644   2.13871   2.17754
 Alpha virt. eigenvalues --    2.18372   2.20221   2.21444   2.24149   2.25548
 Alpha virt. eigenvalues --    2.26227   2.27882   2.31672   2.33267   2.35511
 Alpha virt. eigenvalues --    2.37639   2.38629   2.39662   2.40855   2.41434
 Alpha virt. eigenvalues --    2.45543   2.46632   2.47450   2.47554   2.49311
 Alpha virt. eigenvalues --    2.50375   2.52917   2.53704   2.54208   2.56463
 Alpha virt. eigenvalues --    2.58350   2.58433   2.59369   2.60915   2.61872
 Alpha virt. eigenvalues --    2.63136   2.64667   2.66287   2.67603   2.68250
 Alpha virt. eigenvalues --    2.68908   2.69728   2.70475   2.71322   2.72157
 Alpha virt. eigenvalues --    2.72419   2.74052   2.74717   2.76185   2.77349
 Alpha virt. eigenvalues --    2.78253   2.78367   2.79310   2.80238   2.82899
 Alpha virt. eigenvalues --    2.83653   2.83936   2.85863   2.87307   2.87759
 Alpha virt. eigenvalues --    2.89591   2.90068   2.92352   2.93006   2.93552
 Alpha virt. eigenvalues --    2.95065   2.95696   2.96768   2.97265   2.98079
 Alpha virt. eigenvalues --    2.99183   3.00050   3.00313   3.00876   3.02965
 Alpha virt. eigenvalues --    3.03301   3.03837   3.04710   3.05294   3.06532
 Alpha virt. eigenvalues --    3.07448   3.08516   3.09197   3.10517   3.12393
 Alpha virt. eigenvalues --    3.13291   3.13445   3.15139   3.16116   3.16824
 Alpha virt. eigenvalues --    3.18104   3.20115   3.20614   3.20746   3.22748
 Alpha virt. eigenvalues --    3.23342   3.24091   3.25156   3.26697   3.26939
 Alpha virt. eigenvalues --    3.28048   3.29111   3.30744   3.30815   3.32200
 Alpha virt. eigenvalues --    3.32332   3.33691   3.34390   3.36400   3.36435
 Alpha virt. eigenvalues --    3.37841   3.39080   3.40141   3.40926   3.41721
 Alpha virt. eigenvalues --    3.42924   3.43774   3.44951   3.45592   3.46383
 Alpha virt. eigenvalues --    3.47311   3.48449   3.48501   3.49291   3.50184
 Alpha virt. eigenvalues --    3.51353   3.52837   3.53623   3.54895   3.56717
 Alpha virt. eigenvalues --    3.56979   3.58207   3.60342   3.61024   3.61667
 Alpha virt. eigenvalues --    3.62144   3.63554   3.65231   3.66045   3.66649
 Alpha virt. eigenvalues --    3.66841   3.68959   3.69623   3.70798   3.72003
 Alpha virt. eigenvalues --    3.74511   3.75320   3.76092   3.76837   3.78113
 Alpha virt. eigenvalues --    3.79576   3.80283   3.80746   3.81563   3.83130
 Alpha virt. eigenvalues --    3.83600   3.84915   3.86186   3.87777   3.87829
 Alpha virt. eigenvalues --    3.88017   3.89971   3.90755   3.93027   3.93493
 Alpha virt. eigenvalues --    3.94468   3.95736   3.96437   3.97009   3.98531
 Alpha virt. eigenvalues --    4.00009   4.00783   4.01066   4.03358   4.03560
 Alpha virt. eigenvalues --    4.05479   4.06182   4.07758   4.09200   4.09577
 Alpha virt. eigenvalues --    4.10887   4.12468   4.13039   4.13641   4.14024
 Alpha virt. eigenvalues --    4.15025   4.16494   4.16837   4.17479   4.19118
 Alpha virt. eigenvalues --    4.19471   4.20111   4.22087   4.23084   4.25939
 Alpha virt. eigenvalues --    4.26627   4.27811   4.28433   4.29220   4.30200
 Alpha virt. eigenvalues --    4.30909   4.32191   4.32799   4.34975   4.36662
 Alpha virt. eigenvalues --    4.38063   4.38896   4.40950   4.41524   4.43441
 Alpha virt. eigenvalues --    4.44660   4.45173   4.45981   4.47830   4.49684
 Alpha virt. eigenvalues --    4.52157   4.53703   4.54735   4.57093   4.59326
 Alpha virt. eigenvalues --    4.60489   4.62194   4.63826   4.66310   4.68849
 Alpha virt. eigenvalues --    4.70230   4.73125   4.73264   4.75948   4.76874
 Alpha virt. eigenvalues --    4.77604   4.79488   4.80742   4.81940   4.83117
 Alpha virt. eigenvalues --    4.83821   4.85733   4.88319   4.89164   4.91133
 Alpha virt. eigenvalues --    4.92635   4.93247   4.93967   4.96216   4.97199
 Alpha virt. eigenvalues --    4.98674   5.00618   5.03056   5.04083   5.05000
 Alpha virt. eigenvalues --    5.05958   5.07788   5.08658   5.09943   5.10689
 Alpha virt. eigenvalues --    5.10848   5.13358   5.13845   5.15516   5.16473
 Alpha virt. eigenvalues --    5.17880   5.18488   5.18881   5.19657   5.20516
 Alpha virt. eigenvalues --    5.21836   5.22562   5.22991   5.23163   5.24724
 Alpha virt. eigenvalues --    5.26492   5.28769   5.30422   5.31270   5.31597
 Alpha virt. eigenvalues --    5.33183   5.33477   5.34031   5.35870   5.36735
 Alpha virt. eigenvalues --    5.37570   5.39767   5.40047   5.42582   5.45714
 Alpha virt. eigenvalues --    5.47304   5.51732   5.53433   5.54889   5.56218
 Alpha virt. eigenvalues --    5.60382   5.62100   5.65067   5.68073   5.71133
 Alpha virt. eigenvalues --    5.71826   5.74937   5.75789   5.78001   5.79143
 Alpha virt. eigenvalues --    5.79894   5.81128   5.83991   5.85427   5.88942
 Alpha virt. eigenvalues --    5.89662   5.91560   5.94502   5.97558   6.01316
 Alpha virt. eigenvalues --    6.03223   6.07579   6.09670   6.16603   6.20907
 Alpha virt. eigenvalues --    6.26825   6.46693   6.50977   6.52224   6.54265
 Alpha virt. eigenvalues --    6.57727   6.61218   6.64676   6.85632   6.88802
 Alpha virt. eigenvalues --    7.02793   7.07366   7.09401   7.11367   7.14069
 Alpha virt. eigenvalues --    9.06068   9.45901  11.57259  11.74903  12.17425
 Alpha virt. eigenvalues --   12.36932  12.62939  12.86551  13.60607  13.67382
 Alpha virt. eigenvalues --   14.03534  14.54363
          Condensed to atoms (all electrons):
              1          2          3          4          5          6
     1  C    4.781142   0.228974  -0.035309  -0.032791  -0.011975  -0.003147
     2  C    0.228974   5.347364   0.425464   0.229476  -0.046982  -0.080097
     3  H   -0.035309   0.425464   0.431005  -0.042523   0.000057   0.007460
     4  C   -0.032791   0.229476  -0.042523   5.323379   0.428725   0.257753
     5  H   -0.011975  -0.046982   0.000057   0.428725   0.495927  -0.032142
     6  C   -0.003147  -0.080097   0.007460   0.257753  -0.032142   5.161134
     7  H    0.011314  -0.006747  -0.000456  -0.026952  -0.005004   0.394716
     8  H   -0.000009   0.007832  -0.000007  -0.036331  -0.004651   0.407547
     9  H   -0.001398  -0.008270   0.000286  -0.039857   0.005651   0.397089
    10  C    0.001218  -0.054174  -0.003885   0.264276  -0.015784  -0.074355
    11  H    0.000116   0.011733  -0.000346  -0.028637  -0.006517  -0.009211
    12  H    0.000643  -0.002640   0.003274  -0.033658  -0.003307   0.007120
    13  H   -0.001375  -0.027301  -0.000113  -0.043469   0.007096  -0.001571
    14  O    0.638828  -0.086395   0.002810  -0.004389   0.000756   0.004339
    15  N   -0.056092   0.192752  -0.034587  -0.009425   0.004855  -0.007377
    16  H    0.003675  -0.023148  -0.005094   0.005602  -0.000432  -0.000380
    17  N    0.353256  -0.081671   0.013339   0.002989   0.002488   0.000682
    18  H   -0.010177   0.000735  -0.000810  -0.000494   0.000167   0.000409
    19  C   -0.052268   0.009174  -0.000235  -0.000297  -0.000136  -0.000083
    20  H    0.005906  -0.000149  -0.000125   0.000047  -0.000003  -0.000005
    21  H   -0.013075   0.003364   0.000323  -0.000269   0.000104  -0.000027
    22  H   -0.001287  -0.000920  -0.000426  -0.000001  -0.000043  -0.000002
    23  C    0.003554  -0.035564  -0.001329  -0.007923   0.001309   0.000629
    24  C    0.000200   0.009674   0.001358  -0.004508  -0.000017  -0.001744
    25  H   -0.000001  -0.000188  -0.000013   0.000624  -0.000019  -0.000085
    26  H   -0.000008  -0.000335  -0.000034  -0.000110   0.000006   0.000007
    27  H   -0.000159  -0.001608  -0.000101   0.000527   0.000044   0.000471
    28  O    0.002191   0.015083   0.016858  -0.011832  -0.001180  -0.000070
              7          8          9         10         11         12
     1  C    0.011314  -0.000009  -0.001398   0.001218   0.000116   0.000643
     2  C   -0.006747   0.007832  -0.008270  -0.054174   0.011733  -0.002640
     3  H   -0.000456  -0.000007   0.000286  -0.003885  -0.000346   0.003274
     4  C   -0.026952  -0.036331  -0.039857   0.264276  -0.028637  -0.033658
     5  H   -0.005004  -0.004651   0.005651  -0.015784  -0.006517  -0.003307
     6  C    0.394716   0.407547   0.397089  -0.074355  -0.009211   0.007120
     7  H    0.516995  -0.022738  -0.018550   0.007836  -0.000214  -0.000327
     8  H   -0.022738   0.541927  -0.026716  -0.005322   0.003940  -0.000016
     9  H   -0.018550  -0.026716   0.509430  -0.003082  -0.000680   0.000075
    10  C    0.007836  -0.005322  -0.003082   5.156500   0.400763   0.422736
    11  H   -0.000214   0.003940  -0.000680   0.400763   0.559843  -0.018009
    12  H   -0.000327  -0.000016   0.000075   0.422736  -0.018009   0.497300
    13  H    0.000046  -0.002382   0.005792   0.443662  -0.052667  -0.020872
    14  O    0.000672   0.000657   0.001213  -0.000467   0.000000   0.000000
    15  N   -0.000983   0.000533   0.012521  -0.012373  -0.000719  -0.000126
    16  H   -0.000090   0.000051  -0.000524  -0.000379   0.000129  -0.000277
    17  N   -0.001312   0.000100   0.000140  -0.000328   0.000007  -0.000027
    18  H    0.000228  -0.000098  -0.000009   0.000198  -0.000013   0.000003
    19  C    0.000117  -0.000002  -0.000010   0.000011   0.000000   0.000000
    20  H    0.000003   0.000000   0.000000   0.000001   0.000000   0.000000
    21  H    0.000154  -0.000002  -0.000009  -0.000002   0.000000  -0.000001
    22  H    0.000011  -0.000001  -0.000001   0.000004   0.000000   0.000001
    23  C   -0.000121  -0.000072   0.003575  -0.039077   0.005751  -0.016543
    24  C    0.000051   0.000065  -0.001439   0.006937   0.000466   0.001436
    25  H   -0.000003   0.000016  -0.000179  -0.002506   0.000215   0.000158
    26  H   -0.000001   0.000001   0.000070   0.000423  -0.000009  -0.000113
    27  H   -0.000034  -0.000041   0.002507  -0.000407  -0.000338  -0.000046
    28  O   -0.000019   0.000043  -0.000327  -0.094161   0.008004   0.000291
             13         14         15         16         17         18
     1  C   -0.001375   0.638828  -0.056092   0.003675   0.353256  -0.010177
     2  C   -0.027301  -0.086395   0.192752  -0.023148  -0.081671   0.000735
     3  H   -0.000113   0.002810  -0.034587  -0.005094   0.013339  -0.000810
     4  C   -0.043469  -0.004389  -0.009425   0.005602   0.002989  -0.000494
     5  H    0.007096   0.000756   0.004855  -0.000432   0.002488   0.000167
     6  C   -0.001571   0.004339  -0.007377  -0.000380   0.000682   0.000409
     7  H    0.000046   0.000672  -0.000983  -0.000090  -0.001312   0.000228
     8  H   -0.002382   0.000657   0.000533   0.000051   0.000100  -0.000098
     9  H    0.005792   0.001213   0.012521  -0.000524   0.000140  -0.000009
    10  C    0.443662  -0.000467  -0.012373  -0.000379  -0.000328   0.000198
    11  H   -0.052667   0.000000  -0.000719   0.000129   0.000007  -0.000013
    12  H   -0.020872   0.000000  -0.000126  -0.000277  -0.000027   0.000003
    13  H    0.673234  -0.000088   0.000457  -0.000500  -0.000052   0.000008
    14  O   -0.000088   7.860731   0.002881   0.003511  -0.103027  -0.000891
    15  N    0.000457   0.002881   6.601481   0.363393   0.002908  -0.000103
    16  H   -0.000500   0.003511   0.363393   0.563215   0.000467  -0.000025
    17  N   -0.000052  -0.103027   0.002908   0.000467   6.506526   0.368240
    18  H    0.000008  -0.000891  -0.000103  -0.000025   0.368240   0.568673
    19  C    0.000000  -0.010404  -0.000323  -0.000108   0.270166  -0.024943
    20  H    0.000000   0.001200   0.000002   0.000004  -0.024935  -0.004391
    21  H    0.000000   0.018500   0.000059  -0.000078  -0.055658  -0.008889
    22  H    0.000000  -0.001083  -0.000146   0.000153  -0.032881   0.007212
    23  C   -0.023728  -0.000098   0.302171  -0.009081  -0.000002   0.000001
    24  C   -0.009887  -0.000027  -0.081377   0.004237   0.000004  -0.000001
    25  H   -0.002782   0.000002   0.005593  -0.000221   0.000000   0.000000
    26  H    0.002079  -0.000001   0.001157  -0.000509   0.000000   0.000000
    27  H    0.001934   0.000006   0.009146  -0.000686   0.000000   0.000000
    28  O   -0.065479  -0.000022  -0.099677   0.000724   0.000010  -0.000003
             19         20         21         22         23         24
     1  C   -0.052268   0.005906  -0.013075  -0.001287   0.003554   0.000200
     2  C    0.009174  -0.000149   0.003364  -0.000920  -0.035564   0.009674
     3  H   -0.000235  -0.000125   0.000323  -0.000426  -0.001329   0.001358
     4  C   -0.000297   0.000047  -0.000269  -0.000001  -0.007923  -0.004508
     5  H   -0.000136  -0.000003   0.000104  -0.000043   0.001309  -0.000017
     6  C   -0.000083  -0.000005  -0.000027  -0.000002   0.000629  -0.001744
     7  H    0.000117   0.000003   0.000154   0.000011  -0.000121   0.000051
     8  H   -0.000002   0.000000  -0.000002  -0.000001  -0.000072   0.000065
     9  H   -0.000010   0.000000  -0.000009  -0.000001   0.003575  -0.001439
    10  C    0.000011   0.000001  -0.000002   0.000004  -0.039077   0.006937
    11  H    0.000000   0.000000   0.000000   0.000000   0.005751   0.000466
    12  H    0.000000   0.000000  -0.000001   0.000001  -0.016543   0.001436
    13  H    0.000000   0.000000   0.000000   0.000000  -0.023728  -0.009887
    14  O   -0.010404   0.001200   0.018500  -0.001083  -0.000098  -0.000027
    15  N   -0.000323   0.000002   0.000059  -0.000146   0.302171  -0.081377
    16  H   -0.000108   0.000004  -0.000078   0.000153  -0.009081   0.004237
    17  N    0.270166  -0.024935  -0.055658  -0.032881  -0.000002   0.000004
    18  H   -0.024943  -0.004391  -0.008889   0.007212   0.000001  -0.000001
    19  C    4.800668   0.401953   0.403416   0.401384   0.000016   0.000000
    20  H    0.401953   0.578927  -0.034674  -0.020821   0.000000   0.000000
    21  H    0.403416  -0.034674   0.619465  -0.049956   0.000004   0.000000
    22  H    0.401384  -0.020821  -0.049956   0.590907  -0.000007   0.000000
    23  C    0.000016   0.000000   0.000004  -0.000007   4.666365   0.299976
    24  C    0.000000   0.000000   0.000000   0.000000   0.299976   4.972872
    25  H    0.000000   0.000000   0.000000   0.000000  -0.037330   0.399585
    26  H    0.000000   0.000000   0.000000   0.000000  -0.015746   0.388581
    27  H    0.000000   0.000000   0.000000   0.000000  -0.040010   0.386205
    28  O    0.000001   0.000000   0.000000   0.000000   0.675299  -0.066224
             25         26         27         28
     1  C   -0.000001  -0.000008  -0.000159   0.002191
     2  C   -0.000188  -0.000335  -0.001608   0.015083
     3  H   -0.000013  -0.000034  -0.000101   0.016858
     4  C    0.000624  -0.000110   0.000527  -0.011832
     5  H   -0.000019   0.000006   0.000044  -0.001180
     6  C   -0.000085   0.000007   0.000471  -0.000070
     7  H   -0.000003  -0.000001  -0.000034  -0.000019
     8  H    0.000016   0.000001  -0.000041   0.000043
     9  H   -0.000179   0.000070   0.002507  -0.000327
    10  C   -0.002506   0.000423  -0.000407  -0.094161
    11  H    0.000215  -0.000009  -0.000338   0.008004
    12  H    0.000158  -0.000113  -0.000046   0.000291
    13  H   -0.002782   0.002079   0.001934  -0.065479
    14  O    0.000002  -0.000001   0.000006  -0.000022
    15  N    0.005593   0.001157   0.009146  -0.099677
    16  H   -0.000221  -0.000509  -0.000686   0.000724
    17  N    0.000000   0.000000   0.000000   0.000010
    18  H    0.000000   0.000000   0.000000  -0.000003
    19  C    0.000000   0.000000   0.000000   0.000001
    20  H    0.000000   0.000000   0.000000   0.000000
    21  H    0.000000   0.000000   0.000000   0.000000
    22  H    0.000000   0.000000   0.000000   0.000000
    23  C   -0.037330  -0.015746  -0.040010   0.675299
    24  C    0.399585   0.388581   0.386205  -0.066224
    25  H    0.553386  -0.019386  -0.028153   0.004306
    26  H   -0.019386   0.537890  -0.021536  -0.000862
    27  H   -0.028153  -0.021536   0.551444   0.003482
    28  O    0.004306  -0.000862   0.003482   7.952698
 Mulliken atomic charges:
              1
     1  C    0.188054
     2  C   -0.025437
     3  H    0.223159
     4  C   -0.189933
     5  H    0.181007
     6  C   -0.429061
     7  H    0.151406
     8  H    0.135673
     9  H    0.162701
    10  C   -0.398262
    11  H    0.126392
    12  H    0.162925
    13  H    0.117957
    14  O   -0.329212
    15  N   -0.196604
    16  H    0.096370
    17  N   -0.221428
    18  H    0.104974
    19  C   -0.198098
    20  H    0.097062
    21  H    0.117252
    22  H    0.107905
    23  C    0.267983
    24  C   -0.306421
    25  H    0.126979
    26  H    0.128435
    27  H    0.137353
    28  O   -0.339132
 Sum of Mulliken atomic charges =   0.00000
 Mulliken charges with hydrogens summed into heavy atoms:
              1
     1  C    0.188054
     2  C    0.197722
     4  C   -0.008926
     6  C    0.020720
    10  C    0.009012
    14  O   -0.329212
    15  N   -0.100234
    17  N   -0.116455
    19  C    0.124121
    23  C    0.267983
    24  C    0.086347
    28  O   -0.339132
 Sum of Mulliken charges with hydrogens summed into heavy atoms =   0.00000
 Electronic spatial extent (au):  <R**2>=           2443.2357
 Charge=              0.0000 electrons
 Dipole moment (field-independent basis, Debye):
    X=              0.3018    Y=             -0.0783    Z=             -0.0282  Tot=              0.3131
 Quadrupole moment (field-independent basis, Debye-Ang):
   XX=            -66.6914   YY=            -67.4010   ZZ=            -83.2754
   XY=              4.3292   XZ=             -9.3128   YZ=             -1.0232
 Traceless Quadrupole moment (field-independent basis, Debye-Ang):
   XX=              5.7645   YY=              5.0549   ZZ=            -10.8194
   XY=              4.3292   XZ=             -9.3128   YZ=             -1.0232
 Octapole moment (field-independent basis, Debye-Ang**2):
  XXX=             21.5633  YYY=            -17.5732  ZZZ=              0.3798  XYY=              2.6298
  XXY=             -3.7573  XXZ=              8.6987  XZZ=             -2.4988  YZZ=              3.6190
  YYZ=             -1.3039  XYZ=              6.3397
 Hexadecapole moment (field-independent basis, Debye-Ang**3):
 XXXX=          -2014.4093 YYYY=           -554.8933 ZZZZ=           -424.3279 XXXY=             41.6162
 XXXZ=            -64.5427 YYYX=             23.4023 YYYZ=             -5.5199 ZZZX=              1.6085
 ZZZY=             -4.5131 XXYY=           -434.3315 XXZZ=           -474.5795 YYZZ=           -172.1553
 XXYZ=            -14.8396 YYXZ=             -6.8264 ZZXY=              2.4818
 N-N= 7.761430836053D+02 E-N=-2.891058677302D+03  KE= 5.701334075921D+02
 No NMR shielding tensors so no spin-rotation constants.
 Leave Link  601 at Thu Mar 28 10:09:13 2013, MaxMem= 4294967296 cpu:      18.1
 (Enter /system/software/linux-x86_64/gaussian/g09/A.02__pgi_8.0-6__acml/l701.exe)
 Compute integral first derivatives.
 ... and contract with generalized density number  0.
 Leave Link  701 at Thu Mar 28 10:09:14 2013, MaxMem= 4294967296 cpu:      12.7
 (Enter /system/software/linux-x86_64/gaussian/g09/A.02__pgi_8.0-6__acml/l702.exe)
 L702 exits ... SP integral derivatives will be done elsewhere.
 Leave Link  702 at Thu Mar 28 10:09:14 2013, MaxMem= 4294967296 cpu:       1.1
 (Enter /system/software/linux-x86_64/gaussian/g09/A.02__pgi_8.0-6__acml/l703.exe)
 Compute integral first derivatives, UseDBF=F ICtDFT=           0.
 Integral derivatives from FoFDir, PRISM(SPDF).
 Calling FoFJK, ICntrl=      2127 FMM=F ISym2X=0 I1Cent= 0 IOpClX= 0 NMat=1 NMatS=1 NMatT=0.
 FoFCou: FMM=F IPFlag=           0 FMFlag=      100000 FMFlg1=         800
         NFxFlg=           0 DoJE=F BraDBF=F KetDBF=F FulRan=T
         Omega=  0.000000  0.000000  1.000000  0.000000  0.000000 ICntrl=    2127 IOpCl=  0
         NMat0=    1 NMatS0=    1 NMatT0=    0 NMatD0=    1 NMtDS0=    0 NMtDT0=    0
         I1Cent=           0 NGrid=           0.
 Symmetry not used in FoFCou.
 Leave Link  703 at Thu Mar 28 10:12:08 2013, MaxMem= 4294967296 cpu:    2781.8
 (Enter /system/software/linux-x86_64/gaussian/g09/A.02__pgi_8.0-6__acml/l716.exe)
 Dipole        = 1.18749282D-01-3.08099921D-02-1.11117702D-02
 ***** Axes restored to original set *****
 -------------------------------------------------------------------
 Center     Atomic                   Forces (Hartrees/Bohr)
 Number     Number              X              Y              Z
 -------------------------------------------------------------------
      1        6           0.038091837    0.060057533    0.001102335
      2        6           0.018940241    0.004684763   -0.001529975
      3        1          -0.000848359   -0.017397435    0.003650190
      4        6          -0.016520807    0.028316752    0.004928914
      5        1           0.008466709   -0.013448894   -0.004444269
      6        6          -0.004169430   -0.026023884    0.005163331
      7        1           0.011876270    0.006879171   -0.000987956
      8        1          -0.002890649    0.001049302   -0.013494131
      9        1          -0.004033337    0.011597316    0.004960460
     10        6           0.037581462    0.000723165   -0.046946156
     11        1           0.001019829    0.000204707   -0.018671648
     12        1          -0.007662972   -0.006528990   -0.000770790
     13        1          -0.003656776    0.000319833   -0.040301737
     14        8          -0.032740608   -0.073331381    0.003062657
     15        7          -0.032827286   -0.002741540   -0.026132030
     16        1           0.002610217    0.008829392    0.011499768
     17        7          -0.028381103    0.025064846    0.019235554
     18        1          -0.002142458   -0.006650926   -0.011897063
     19        6          -0.008706105   -0.001170478   -0.018927160
     20        1           0.005586226   -0.011220717    0.000834720
     21        1           0.011287204    0.011742288    0.000557313
     22        1          -0.003342219    0.002442414    0.010851493
     23        6          -0.026481934   -0.065021002    0.041828667
     24        6           0.032204725   -0.021719797   -0.002483777
     25        1          -0.009850492   -0.005740160   -0.004620314
     26        1          -0.003868414    0.002853957    0.012561015
     27        1           0.006153020    0.011952580   -0.002880413
     28        8           0.014305210    0.074277185    0.073851002
 -------------------------------------------------------------------
 Cartesian Forces:  Max     0.074277185 RMS     0.023257437
 Leave Link  716 at Thu Mar 28 10:12:09 2013, MaxMem= 4294967296 cpu:       0.8
 (Enter /system/software/linux-x86_64/gaussian/g09/A.02__pgi_8.0-6__acml/l103.exe)

 GradGradGradGradGradGradGradGradGradGradGradGradGradGradGradGradGradGrad
 Berny optimization.
 Internal  Forces:  Max     0.095656515 RMS     0.021277880
 Search for a local minimum.
 Step number   1 out of a maximum of  145
 All quantities printed in internal units (Hartrees-Bohrs-Radians)
 RMS Force = .21278D-01 SwitMx=.10000D-02 MixMth= 1
 Mixed Optimization -- RFO/linear search
[...]
 Alpha virt. eigenvalues --    2.81721   2.82599   2.83808   2.85119   2.88068
 Alpha virt. eigenvalues --    2.88530   2.89201   2.90968   2.91613   2.92794
 Alpha virt. eigenvalues --    2.94193   2.94838   2.95433   2.96287   2.97602
 Alpha virt. eigenvalues --    2.97822   2.99115   2.99955   3.00518   3.01536
 Alpha virt. eigenvalues --    3.02859   3.03450   3.04156   3.05070   3.05856
 Alpha virt. eigenvalues --    3.06021   3.07263   3.08704   3.09928   3.10744
 Alpha virt. eigenvalues --    3.12675   3.13370   3.13530   3.14307   3.15173
 Alpha virt. eigenvalues --    3.16436   3.18403   3.19359   3.22523   3.23721
 Alpha virt. eigenvalues --    3.24418   3.24752   3.25949   3.26348   3.26649
 Alpha virt. eigenvalues --    3.27691   3.28551   3.29633   3.30085   3.30398
 Alpha virt. eigenvalues --    3.32150   3.33565   3.34319   3.35738   3.36318
 Alpha virt. eigenvalues --    3.36822   3.37253   3.38365   3.39639   3.40630
 Alpha virt. eigenvalues --    3.41071   3.41319   3.42522   3.43673   3.43975
 Alpha virt. eigenvalues --    3.44890   3.45775   3.46011   3.46913   3.48049
 Alpha virt. eigenvalues --    3.48992   3.51016   3.52186   3.53607   3.53972
 Alpha virt. eigenvalues --    3.54997   3.55892   3.56623   3.57815   3.58315
 Alpha virt. eigenvalues --    3.59689   3.61031   3.61597   3.63087   3.63632
 Alpha virt. eigenvalues --    3.66342   3.68204   3.68812   3.69454   3.71562
 Alpha virt. eigenvalues --    3.71987   3.72160   3.73110   3.75160   3.76231
 Alpha virt. eigenvalues --    3.77234   3.77477   3.78476   3.79690   3.80912
 Alpha virt. eigenvalues --    3.81760   3.82828   3.84209   3.84706   3.87153
 Alpha virt. eigenvalues --    3.87949   3.89139   3.89645   3.90283   3.91408
 Alpha virt. eigenvalues --    3.93016   3.94763   3.94959   3.95907   3.97797
 Alpha virt. eigenvalues --    3.98707   3.99536   4.01035   4.02610   4.03560
 Alpha virt. eigenvalues --    4.04017   4.04834   4.05889   4.06192   4.06325
 Alpha virt. eigenvalues --    4.07709   4.09658   4.11927   4.12951   4.13291
 Alpha virt. eigenvalues --    4.13826   4.14543   4.16043   4.18634   4.18843
 Alpha virt. eigenvalues --    4.19971   4.20232   4.21134   4.22800   4.23403
 Alpha virt. eigenvalues --    4.24658   4.25008   4.26281   4.26604   4.28556
 Alpha virt. eigenvalues --    4.29306   4.29730   4.30934   4.32108   4.33200
 Alpha virt. eigenvalues --    4.34096   4.36113   4.36819   4.39827   4.40461
 Alpha virt. eigenvalues --    4.41652   4.43008   4.43557   4.45806   4.47423
 Alpha virt. eigenvalues --    4.49896   4.50480   4.53630   4.56117   4.56871
 Alpha virt. eigenvalues --    4.58685   4.61009   4.62244   4.63489   4.65600
 Alpha virt. eigenvalues --    4.67585   4.69098   4.70913   4.72906   4.74019
 Alpha virt. eigenvalues --    4.74792   4.75937   4.76844   4.78440   4.79135
 Alpha virt. eigenvalues --    4.80636   4.81258   4.83172   4.83715   4.84947
 Alpha virt. eigenvalues --    4.88307   4.88659   4.89062   4.91217   4.92685
 Alpha virt. eigenvalues --    4.94502   4.95216   4.97200   4.98201   4.99031
 Alpha virt. eigenvalues --    5.00591   5.01387   5.01743   5.02755   5.04567
 Alpha virt. eigenvalues --    5.05972   5.06314   5.08427   5.10236   5.11334
 Alpha virt. eigenvalues --    5.12980   5.14568   5.15059   5.15701   5.16854
 Alpha virt. eigenvalues --    5.18141   5.18870   5.19929   5.21122   5.22421
 Alpha virt. eigenvalues --    5.23896   5.25432   5.25572   5.27543   5.28856
 Alpha virt. eigenvalues --    5.29627   5.29819   5.31577   5.32268   5.33221
 Alpha virt. eigenvalues --    5.34174   5.34712   5.38081   5.38343   5.40822
 Alpha virt. eigenvalues --    5.43449   5.49384   5.52607   5.58163   5.59833
 Alpha virt. eigenvalues --    5.63242   5.65294   5.68643   5.68719   5.72417
 Alpha virt. eigenvalues --    5.74664   5.77197   5.78597   5.79930   5.81096
 Alpha virt. eigenvalues --    5.83342   5.84803   5.88541   5.89356   5.90143
 Alpha virt. eigenvalues --    5.91080   5.94129   5.95236   5.98090   6.01282
 Alpha virt. eigenvalues --    6.02278   6.04879   6.25624   6.28301   6.35130
 Alpha virt. eigenvalues --    6.38521   6.48583   6.49895   6.53532   6.56457
 Alpha virt. eigenvalues --    6.64759   6.71219   6.87694   6.92316   6.92878
 Alpha virt. eigenvalues --    6.93556   7.10527   7.11494   7.16004   7.19469
 Alpha virt. eigenvalues --    9.54143   9.87458  11.56279  12.31663  12.62921
 Alpha virt. eigenvalues --   12.78025  13.23490  13.42222  13.62399  13.65620
 Alpha virt. eigenvalues --   13.79207  13.84740
          Condensed to atoms (all electrons):
              1          2          3          4          5          6
     1  C    4.606614   0.198140  -0.018561  -0.040825  -0.012854   0.005118
     2  C    0.198140   5.498098   0.433444   0.213640  -0.045147  -0.062762
     3  H   -0.018561   0.433444   0.440431  -0.065474  -0.003711   0.007420
     4  C   -0.040825   0.213640  -0.065474   5.346082   0.419647   0.249740
     5  H   -0.012854  -0.045147  -0.003711   0.419647   0.517659  -0.033150
     6  C    0.005118  -0.062762   0.007420   0.249740  -0.033150   5.161616
     7  H    0.009160  -0.006398  -0.000099  -0.027481  -0.005652   0.394201
     8  H    0.000239   0.007654  -0.000083  -0.031723  -0.006064   0.404805
     9  H   -0.004261  -0.002549   0.000326  -0.051168   0.008056   0.400920
    10  C    0.003891  -0.053716  -0.008597   0.274985  -0.023166  -0.075664
    11  H   -0.000200   0.008993  -0.000147  -0.033548  -0.007258  -0.009005
    12  H    0.000776   0.001754   0.003954  -0.038781  -0.004251   0.007110
    13  H   -0.000439  -0.016686  -0.000279  -0.037001   0.007263  -0.005030
    14  O    0.701612  -0.090536   0.000965  -0.007893  -0.000284   0.008495
    15  N   -0.035435   0.208010  -0.045695  -0.025935   0.005645  -0.004874
    16  H   -0.007004  -0.044876   0.003934  -0.000227  -0.000418   0.002759
    17  N    0.417214  -0.108273  -0.000350   0.018935   0.007646  -0.005718
    18  H   -0.026631   0.005049  -0.001390  -0.000458   0.001200   0.000383
    19  C   -0.059464   0.008480  -0.000176  -0.000902   0.000133   0.000194
    20  H    0.000739  -0.001005  -0.000108   0.000175   0.000094  -0.000022
    21  H    0.003741   0.000442   0.000075  -0.000267  -0.000222   0.000164
    22  H   -0.013286   0.004828  -0.000124  -0.000332  -0.000043  -0.000157
    23  C    0.007155  -0.057044  -0.004670  -0.001654   0.000343  -0.001008
    24  C   -0.000662   0.013083   0.002751  -0.001652   0.000034  -0.000207
    25  H    0.000061  -0.000733  -0.000240   0.000210  -0.000005   0.000003
    26  H    0.000055  -0.000462  -0.000008  -0.000037   0.000002   0.000002
    27  H   -0.000311   0.000789  -0.000297   0.000077   0.000007   0.000019
    28  O   -0.000012   0.007451   0.030069  -0.008579  -0.000129  -0.000163
              7          8          9         10         11         12
     1  C    0.009160   0.000239  -0.004261   0.003891  -0.000200   0.000776
     2  C   -0.006398   0.007654  -0.002549  -0.053716   0.008993   0.001754
     3  H   -0.000099  -0.000083   0.000326  -0.008597  -0.000147   0.003954
     4  C   -0.027481  -0.031723  -0.051168   0.274985  -0.033548  -0.038781
     5  H   -0.005652  -0.006064   0.008056  -0.023166  -0.007258  -0.004251
     6  C    0.394201   0.404805   0.400920  -0.075664  -0.009005   0.007110
     7  H    0.519184  -0.017952  -0.025748   0.007938  -0.000199  -0.000318
     8  H   -0.017952   0.534527  -0.026834  -0.008494   0.004363  -0.000048
     9  H   -0.025748  -0.026834   0.538290  -0.003807  -0.001017  -0.000046
    10  C    0.007938  -0.008494  -0.003807   5.126299   0.408118   0.398968
    11  H   -0.000199   0.004363  -0.001017   0.408118   0.532306  -0.014109
    12  H   -0.000318  -0.000048  -0.000046   0.398968  -0.014109   0.512805
    13  H    0.000053  -0.000963   0.004549   0.405392  -0.029848  -0.025345
    14  O   -0.000770   0.000344  -0.000509  -0.000503   0.000005  -0.000008
    15  N   -0.000439  -0.000158   0.014720  -0.005792  -0.000608  -0.001880
    16  H   -0.000158   0.000247  -0.002710  -0.000139   0.000058  -0.000049
    17  N   -0.002056  -0.000215   0.000103   0.000862  -0.000007   0.000067
    18  H   -0.000095  -0.000015   0.000014  -0.000146   0.000003  -0.000008
    19  C   -0.000054  -0.000003   0.000015   0.000028  -0.000004   0.000001
    20  H    0.000008  -0.000002   0.000000   0.000005   0.000000   0.000001
    21  H    0.000057   0.000015  -0.000004  -0.000017   0.000001  -0.000001
    22  H    0.000214  -0.000011   0.000013   0.000014  -0.000001   0.000000
    23  C   -0.000106  -0.000016   0.000609  -0.003361   0.000318  -0.001573
    24  C    0.000010  -0.000004   0.000130   0.000349  -0.000004   0.000224
    25  H    0.000000   0.000001  -0.000086   0.000061   0.000005  -0.000022
    26  H    0.000000   0.000000   0.000022  -0.000018  -0.000001  -0.000001
    27  H   -0.000003  -0.000004   0.000226  -0.000094  -0.000006  -0.000034
    28  O    0.000002   0.000005  -0.000162  -0.000751   0.000342   0.006411
             13         14         15         16         17         18
     1  C   -0.000439   0.701612  -0.035435  -0.007004   0.417214  -0.026631
     2  C   -0.016686  -0.090536   0.208010  -0.044876  -0.108273   0.005049
     3  H   -0.000279   0.000965  -0.045695   0.003934  -0.000350  -0.001390
     4  C   -0.037001  -0.007893  -0.025935  -0.000227   0.018935  -0.000458
     5  H    0.007263  -0.000284   0.005645  -0.000418   0.007646   0.001200
     6  C   -0.005030   0.008495  -0.004874   0.002759  -0.005718   0.000383
     7  H    0.000053  -0.000770  -0.000439  -0.000158  -0.002056  -0.000095
     8  H   -0.000963   0.000344  -0.000158   0.000247  -0.000215  -0.000015
     9  H    0.004549  -0.000509   0.014720  -0.002710   0.000103   0.000014
    10  C    0.405392  -0.000503  -0.005792  -0.000139   0.000862  -0.000146
    11  H   -0.029848   0.000005  -0.000608   0.000058  -0.000007   0.000003
    12  H   -0.025345  -0.000008  -0.001880  -0.000049   0.000067  -0.000008
    13  H    0.538024  -0.000009   0.009914  -0.000195  -0.000017  -0.000002
    14  O   -0.000009   7.852611  -0.021150   0.042141  -0.107972   0.004600
    15  N    0.009914  -0.021150   6.616022   0.364772   0.003478   0.000354
    16  H   -0.000195   0.042141   0.364772   0.483529   0.002967  -0.000275
    17  N   -0.000017  -0.107972   0.003478   0.002967   6.394739   0.382728
    18  H   -0.000002   0.004600   0.000354  -0.000275   0.382728   0.529086
    19  C    0.000003  -0.016226  -0.000307  -0.000024   0.274755  -0.030920
    20  H    0.000000  -0.000065   0.000026   0.000008  -0.033563  -0.004874
    21  H    0.000000   0.000125   0.000002   0.000004  -0.038227  -0.003048
    22  H    0.000000   0.028328  -0.000065  -0.000280  -0.039124   0.005799
    23  C   -0.001487  -0.000802   0.339317  -0.011483  -0.000562   0.000051
    24  C   -0.000061  -0.000305  -0.066175  -0.002263  -0.000008   0.000001
    25  H   -0.000044  -0.000002   0.001164   0.000551   0.000000   0.000000
    26  H    0.000041   0.000013  -0.001071  -0.000655  -0.000002   0.000000
    27  H    0.000202  -0.000227   0.015346  -0.003144  -0.000007   0.000002
    28  O   -0.003520  -0.000030  -0.143357   0.003229   0.000008  -0.000062
             19         20         21         22         23         24
     1  C   -0.059464   0.000739   0.003741  -0.013286   0.007155  -0.000662
     2  C    0.008480  -0.001005   0.000442   0.004828  -0.057044   0.013083
     3  H   -0.000176  -0.000108   0.000075  -0.000124  -0.004670   0.002751
     4  C   -0.000902   0.000175  -0.000267  -0.000332  -0.001654  -0.001652
     5  H    0.000133   0.000094  -0.000222  -0.000043   0.000343   0.000034
     6  C    0.000194  -0.000022   0.000164  -0.000157  -0.001008  -0.000207
     7  H   -0.000054   0.000008   0.000057   0.000214  -0.000106   0.000010
     8  H   -0.000003  -0.000002   0.000015  -0.000011  -0.000016  -0.000004
     9  H    0.000015   0.000000  -0.000004   0.000013   0.000609   0.000130
    10  C    0.000028   0.000005  -0.000017   0.000014  -0.003361   0.000349
    11  H   -0.000004   0.000000   0.000001  -0.000001   0.000318  -0.000004
    12  H    0.000001   0.000001  -0.000001   0.000000  -0.001573   0.000224
    13  H    0.000003   0.000000   0.000000   0.000000  -0.001487  -0.000061
    14  O   -0.016226  -0.000065   0.000125   0.028328  -0.000802  -0.000305
    15  N   -0.000307   0.000026   0.000002  -0.000065   0.339317  -0.066175
    16  H   -0.000024   0.000008   0.000004  -0.000280  -0.011483  -0.002263
    17  N    0.274755  -0.033563  -0.038227  -0.039124  -0.000562  -0.000008
    18  H   -0.030920  -0.004874  -0.003048   0.005799   0.000051   0.000001
    19  C    4.798346   0.403962   0.399186   0.396542   0.000020  -0.000001
    20  H    0.403962   0.607399  -0.044386  -0.027024  -0.000002   0.000000
    21  H    0.399186  -0.044386   0.613464  -0.024913   0.000000   0.000000
    22  H    0.396542  -0.027024  -0.024913   0.538196   0.000012   0.000001
    23  C    0.000020  -0.000002   0.000000   0.000012   4.554021   0.283372
    24  C   -0.000001   0.000000   0.000000   0.000001   0.283372   4.978443
    25  H    0.000000   0.000000   0.000000   0.000000  -0.027908   0.389849
    26  H    0.000000   0.000000   0.000000   0.000000  -0.026851   0.388384
    27  H    0.000000   0.000000   0.000000   0.000000  -0.055382   0.398093
    28  O    0.000001   0.000000   0.000000   0.000001   0.720895  -0.065681
             25         26         27         28
     1  C    0.000061   0.000055  -0.000311  -0.000012
     2  C   -0.000733  -0.000462   0.000789   0.007451
     3  H   -0.000240  -0.000008  -0.000297   0.030069
     4  C    0.000210  -0.000037   0.000077  -0.008579
     5  H   -0.000005   0.000002   0.000007  -0.000129
     6  C    0.000003   0.000002   0.000019  -0.000163
     7  H    0.000000   0.000000  -0.000003   0.000002
     8  H    0.000001   0.000000  -0.000004   0.000005
     9  H   -0.000086   0.000022   0.000226  -0.000162
    10  C    0.000061  -0.000018  -0.000094  -0.000751
    11  H    0.000005  -0.000001  -0.000006   0.000342
    12  H   -0.000022  -0.000001  -0.000034   0.006411
    13  H   -0.000044   0.000041   0.000202  -0.003520
    14  O   -0.000002   0.000013  -0.000227  -0.000030
    15  N    0.001164  -0.001071   0.015346  -0.143357
    16  H    0.000551  -0.000655  -0.003144   0.003229
    17  N    0.000000  -0.000002  -0.000007   0.000008
    18  H    0.000000   0.000000   0.000002  -0.000062
    19  C    0.000000   0.000000   0.000000   0.000001
    20  H    0.000000   0.000000   0.000000   0.000000
    21  H    0.000000   0.000000   0.000000   0.000000
    22  H    0.000000   0.000000   0.000000   0.000001
    23  C   -0.027908  -0.026851  -0.055382   0.720895
    24  C    0.389849   0.388384   0.398093  -0.065681
    25  H    0.573226  -0.026057  -0.027424   0.002367
    26  H   -0.026057   0.572477  -0.023921   0.000891
    27  H   -0.027424  -0.023921   0.589350   0.004249
    28  O    0.002367   0.000891   0.004249   7.833761
 Mulliken atomic charges:
              1
     1  C    0.265429
     2  C   -0.119668
     3  H    0.226639
     4  C   -0.149551
     5  H    0.174626
     6  C   -0.445189
     7  H    0.156701
     8  H    0.140389
     9  H    0.150910
    10  C   -0.442643
    11  H    0.141451
    12  H    0.154402
    13  H    0.155485
    14  O   -0.391947
    15  N   -0.225829
    16  H    0.169700
    17  N   -0.167401
    18  H    0.138654
    19  C   -0.173588
    20  H    0.098634
    21  H    0.093808
    22  H    0.131411
    23  C    0.287795
    24  C   -0.317701
    25  H    0.115024
    26  H    0.117198
    27  H    0.102493
    28  O   -0.387234
 Sum of Mulliken atomic charges =   0.00000
 Mulliken charges with hydrogens summed into heavy atoms:
              1
     1  C    0.265429
     2  C    0.106971
     4  C    0.025075
     6  C    0.002811
    10  C    0.008696
    14  O   -0.391947
    15  N   -0.056129
    17  N   -0.028747
    19  C    0.150266
    23  C    0.287795
    24  C    0.017014
    28  O   -0.387234
 Sum of Mulliken charges with hydrogens summed into heavy atoms =   0.00000
 Electronic spatial extent (au):  <R**2>=           2466.1775
 Charge=              0.0000 electrons
 Dipole moment (field-independent basis, Debye):
    X=              2.6159    Y=              0.7159    Z=             -0.0652  Tot=              2.7129
 Quadrupole moment (field-independent basis, Debye-Ang):
   XX=            -69.0150   YY=            -72.9595   ZZ=            -76.8361
   XY=              3.0588   XZ=            -13.2277   YZ=              0.3338
 Traceless Quadrupole moment (field-independent basis, Debye-Ang):
   XX=              3.9219   YY=             -0.0226   ZZ=             -3.8992
   XY=              3.0588   XZ=            -13.2277   YZ=              0.3338
 Octapole moment (field-independent basis, Debye-Ang**2):
  XXX=             35.8433  YYY=             -8.4163  ZZZ=             -2.4894  XYY=             -5.8718
  XXY=            -13.7465  XXZ=              7.8933  XZZ=             12.0389  YZZ=              0.6833
  YYZ=             -3.7049  XYZ=              8.0627
 Hexadecapole moment (field-independent basis, Debye-Ang**3):
 XXXX=          -1805.7944 YYYY=           -896.2579 ZZZZ=           -392.7142 XXXY=            -11.7374
 XXXZ=            -70.8154 YYYX=             14.3123 YYYZ=              5.9114 ZZZX=            -26.0871
 ZZZY=             -9.2648 XXYY=           -457.6297 XXZZ=           -410.3235 YYZZ=           -223.2023
 XXYZ=             -4.1784 YYXZ=             -4.7960 ZZXY=             -0.0042
 N-N= 7.683643898499D+02 E-N=-2.875550191858D+03  KE= 5.701955805926D+02
 Calculating spin-rotation constants.
 Leave Link  601 at Mon Apr  1 01:24:24 2013, MaxMem= 4294967296 cpu:     731.0
 (Enter /system/software/linux-x86_64/gaussian/g09/A.02__pgi_8.0-6__acml/l9999.exe)

 Test job not archived.
 1\1\GINC-CARIBOU\SP\RM06\Gen\C8H16N2O2\KUPROV\01-Apr-2013\0\\#P Geom=A
 llCheck Guess=TCheck SCRF=Check GenChk RM06/ChkBas NMR=ReadFC IOp(3/6=
 22)\\J-coupling calculation 1\\0,1\C,0,-0.1528187722,-3.1801563874,-0.
 2591994649\C,0,-1.5258935389,-3.466458679,-0.850709779\H,0,-1.92482937
 69,-4.4012544406,-0.441174344\C,0,-1.4363276835,-3.6141812652,-2.38151
 77052\H,0,-0.7651169231,-4.4609272652,-2.5725434086\C,0,-0.8461476962,
 -2.378245074,-3.0351444912\H,0,0.1651062673,-2.1629708366,-2.685947217
 1\H,0,-0.8096572535,-2.5007242845,-4.1185795894\H,0,-1.4658403046,-1.5
 033178749,-2.8238072063\C,0,-2.7944694559,-3.9428870203,-2.9706122015\
 H,0,-2.7082238256,-4.1290387305,-4.0425192667\H,0,-3.2439551857,-4.816
 3620578,-2.4977853361\H,0,-3.4835673329,-3.1069050043,-2.8338447921\O,
 0,0.153125618,-2.0756086382,0.1432558602\N,0,-2.4103133127,-2.40669379
 95,-0.4361997022\H,0,-1.9418712854,-1.5489989641,-0.1785165351\N,0,0.6
 943689209,-4.2350880275,-0.2641958434\H,0,0.3400201063,-5.1252953225,-
 0.5687905494\C,0,2.0525608254,-4.1493842915,0.2134077612\H,0,2.2108172
 953,-4.7883371476,1.0832507316\H,0,2.7647705788,-4.4307712397,-0.56306
 7098\H,0,2.2356802617,-3.1172096997,0.5016832366\C,0,-3.6542611455,-2.
 6650490358,0.0562793074\C,0,-4.3583486568,-1.4825515151,0.6624143819\H
 ,0,-5.3624128435,-1.4221069698,0.2468881897\H,0,-4.4621148609,-1.65194
 90385,1.7340129999\H,0,-3.8415584614,-0.5377299025,0.501305562\O,0,-4.
 1669522285,-3.7626992877,0.0090570297\\Version=EM64L-G09RevA.02\State=
 1-A\HF=-574.2999234\RMSD=7.319e-09\Dipole=0.9793561,-0.3123736,-0.2872
 38\Quadrupole=-1.6496925,1.7153684,-0.0656759,-10.3522563,0.1828446,0.
 6046797\PG=C01 [X(C8H16N2O2)]\\@


 SCIENCE IS LONG AND LIFE IS SHORT.

                     DON MOSER IN THE FEBRUARY 1979 SMITHSONIAN
 Job cpu time:  4 days 20 hours  4 minutes  3.8 seconds.
 File lengths (MBytes):  RWF=   1699 Int=      0 D2E=      0 Chk=     45 Scr=      1
 Normal termination of Gaussian 09 at Mon Apr  1 01:24:39 2013.
