% Model:              sjo1e12-ph2c-si-200617-pdms-chip-vol-8ul-001.mph
% Version:            COMSOL 5.4.0.388
% Date:               May 20 2022, 15:15
% Dimension:          2
% Nodes:              28902
% Expressions:        3
% Description:        Mesh element number, Velocity field, x component, Velocity field, y component
% Length unit:        mm
% x                       y                        meshelement @ q=4        u (m/s) @ q=4            v (m/s) @ q=4
287.1028703719617         628.3858078173291        2                        -4.326486715116712E-20   7.802214269888331E-17
287.1028703719617         628.3333969158165        3                        -7.4674618542126285E-19  -4.1349021350735467E-16
287.1028703719617         628.3596023665501        1                        -2.4118765841646802E-18  6.79576424685606E-16
287.10821039538155        628.3858078173291        6                        9.727790293351017E-8     -1.754271057332011E-4
287.1028703719617         628.3071914650828        3                        -5.22376922730387E-19    4.836623207473018E-16
287.1028703719617         628.2809860143492        4                        2.763525929535597E-19    -5.78448968928565E-16
287.10811004246335        628.3333969158165        9                        -3.0113232829562924E-7   -1.667437653540783E-4
287.1081747841731         628.3596023665501        5                        5.934615355774275E-7     -1.6721521788634315E-4
287.1146184234853         628.3858078173291        1                        1.072451693925106E-7     -3.5982627708396216E-4
287.1028703719617         628.2547805636157        8                        -2.7014762073966883E-19  -4.735245437118585E-16
287.1028703719617         628.2285751128819        11                       9.27916634667674E-21     -5.4778206735339334E-17
287.10803516827224        628.3071914650828        9                        1.7723192063874364E-7    -1.640968394976858E-4
287.10795693344255        628.2809860143492        10                       7.669582096233443E-8     -1.6053628475886563E-4
287.1143976470653         628.3333969158165        6                        -5.837734563813873E-7    -3.429521757782828E-4
287.1145400788268         628.3596023665501        4                        1.1832754666695E-6       -3.4282417551084407E-4
287.12457369952983        628.3685051414452        5                        2.039097226877512E-6     -5.633828597027637E-4
287.1277858013539         628.3858078173291        2                        1.901965863996097E-7     -6.493326906746684E-4
287.1028703719617         628.2023696621484        11                       -4.39960106957848E-23    -6.556471654938093E-16
287.1028703719617         628.1761642114146        12                       1.2238790088391122E-18   -2.273716799033574E-15
287.10785071353286        628.2547805636157        14                       -8.980194302645687E-8    -1.5740810146320415E-4
287.10772365644124        628.2285751128819        18                       2.6061521734874735E-8    -1.5385039690874936E-4
287.1028703719617         628.149958760681         16                       -1.9930691104621514E-22  -1.5292395626871926E-16
287.1028703719617         628.1237533099475        17                       -2.3078213138284592E-19  -6.891138339094501E-16
287.1028703719617         628.0975478592137        17                       3.1740604103233695E-19   -1.8090950849527005E-15
287.11423292384467        628.3071914650828        3                        5.221518502474297E-7     -3.3665103846413676E-4
287.1140608072196         628.2809860143492        11                       6.856218349552418E-7     -3.3055426394961774E-4
287.12701799197094        628.3171020359661        6                        -2.3672957784805244E-8   -6.103025062755132E-4
287.12735682367446        628.3432767391672        6                        1.0167834537833934E-6    -6.261803560689318E-4
287.1385673703088         628.3680309668496        17                       -2.1137462883313368E-8   -7.557490204594616E-4
287.1536121065079         628.3858078173291        20                       4.892410164625908E-8     -8.671303943029456E-4
287.1416889600543         628.326035377578         10                       5.187979895060785E-7     -7.79439408188026E-4
287.1076392031607         628.2023696621484        18                       -1.0148815173390189E-11  -1.5124195611390876E-4
287.10760780042386        628.1761642114146        19                       8.076992809454273E-8     -1.5005400128695754E-4
287.1138271234182         628.2547805636157        24                       -4.285701305068646E-7    -3.248393690038461E-4
287.11354759781665        628.2285751128819        27                       8.431769345198873E-8     -3.1757403656717067E-4
287.1075807681014         628.149958760681         23                       -1.9374023963621406E-10  -1.4865276763853383E-4
287.1028703719617         628.0713424084801        21                       4.504803681418338E-20    -3.0135642702559856E-16
287.1028703719617         628.0451369577464        25                       4.677716367686722E-20    2.925618427033817E-16
287.10756118329334        628.1237533099475        24                       -4.97296804252233E-8     -1.484924787368274E-4
287.10757775094464        628.0975478592137        24                       2.6167584607386772E-8    -1.4914539289610364E-4
287.12664763146796        628.2905807468077        12                       1.9774198542476937E-6    -6.031191007499381E-4
287.12390927895956        628.2621156430781        25                       -9.132836318129546E-7    -5.531314567320733E-4
287.1465904241544         628.3025964094115        16                       -1.1665956340193098E-6   -8.206115681982806E-4
287.179438411662          628.3858078173291        36                       -2.642384658169968E-7    -6.227216250883905E-4
287.15372062118536        628.3453245015688        18                       -2.120375932405877E-7    -8.34311577817477E-4
287.1647567090565         628.3666086848317        21                       6.475239012472246E-7     -7.80455918330791E-4
287.1599029903045         628.3227234590677        22                       -1.3228228442107085E-6   -8.138071437637798E-4
287.1028703719617         628.0189315070128        26                       2.3564408412045446E-20   5.37780366312471E-16
287.1028703719617         627.9927260562793        26                       -2.994314562011352E-20   -1.3325702934985214E-16
287.1028703719617         627.9665206055455        27                       -7.90047120709372E-21    -6.050880665330673E-17
287.1133618005995         628.2023696621484        26                       -3.0026118395351507E-7   -3.129581154265835E-4
287.11329271457845        628.1761642114146        42                       3.3960661460459333E-7    -3.1003048875162146E-4
287.1238405039241         628.2360175242668        27                       -4.749087336763352E-8    -5.520250025938811E-4
287.12368842320393        628.2117471550747        27                       4.774516357384541E-7     -5.502563249951992E-4
287.113233243469          628.149958760681         50                       8.865843827591444E-9     -3.076804534364306E-4
287.10761871027887        628.0713424084801        28                       2.2429886325063078E-8    -1.5004850110096518E-4
287.1076745518559         628.0451369577464        30                       -2.4264641432215986E-8   -1.517601250621893E-4
287.1131901568913         628.1237533099475        52                       -2.536279001184514E-7    -3.0753702185198884E-4
287.11322660572415        628.0975478592137        52                       1.123171411970958E-8     -3.0856192751315694E-4
287.1418570365885         628.2743897303443        31                       9.661345666299492E-7     -7.903348709851561E-4
287.14245808641334        628.2476340920684        47                       4.5915643374726064E-7    -7.951847920870677E-4
287.16482839354353        628.3038252165945        32                       -1.4992600793693374E-6   -7.807328321743686E-4
287.16270312982556        628.2837442249053        34                       7.648842432724192E-7     -7.99863441956426E-4
287.18161982111985        628.3679985980967        65                       -1.6600511238439216E-6   -5.549416486787005E-4
287.1919529686946         628.3858078173291        36                       -1.0874019601835351E-7   -3.37547698046213E-4
287.1795475179553         628.3421663044433        66                       5.201903749721192E-10    -6.053340338774683E-4
287.1789924235276         628.3174441709639        68                       -2.9188629018266856E-6   -6.054892615035102E-4
287.107736115759          628.0189315070128        31                       -6.740213461396777E-9    -1.538232745201247E-4
287.1077627388266         627.9927260562793        31                       -3.476013389804891E-8    -1.546942409394071E-4
287.1028703719617         627.9403151548119        33                       1.7871722472355414E-19   -1.1487783710318995E-15
287.1028703719617         627.9141097040782        34                       2.1283932399194083E-19   -5.878762407335498E-16
287.1028703719617         627.8879042533446        34                       2.6019343575924114E-19   -1.8250895080113707E-15
287.10773250181404        627.9665206055455        35                       -2.012475066963981E-8    -1.5413316690951004E-4
287.12591379764314        628.1867649906135        43                       6.506940114644538E-7     -5.883238600546347E-4
287.12582858847395        628.1607471803594        51                       9.734015699359656E-7     -5.871521592819847E-4
287.14289717797635        628.222153315625         46                       5.234877821154199E-7     -7.98644240167548E-4
287.14329372695516        628.1963721005521        49                       2.1172587196877332E-7    -8.010167591828434E-4
287.1255875611918         628.1368583788245        53                       -1.4442798062088147E-6   -5.832789100424394E-4
287.11331671625936        628.0713424084801        54                       2.888075235578647E-7     -3.104092679947879E-4
287.1134395677289         628.0451369577464        82                       -2.061801567985297E-7    -3.1359025049831164E-4
287.1263546407255         628.1105736262474        52                       -4.5458098821331447E-7   -5.972524450066077E-4
287.12671550496776        628.0841945052008        55                       1.5535692766119402E-6    -6.036333356218993E-4
287.1611889088086         628.2582428138886        59                       -3.559834605732804E-7    -8.084610012597548E-4
287.16105561222275        628.2328855252075        58                       1.7748880298101209E-9    -8.090896341857347E-4
287.1789715926868         628.2936394412025        92                       -2.1772270423197176E-7   -6.041056762523949E-4
287.1798169081409         628.2695198169371        94                       3.7033196217935825E-7    -5.897818015691931E-4
287.19200422631314        628.3596023665501        37                       -1.2427067947337375E-6   -3.2193972992770783E-4
287.1979079159312         628.3858078173291        45                       -1.2952713182334794E-7   -1.6368314142501433E-4
287.19202076159786        628.3333969158165        37                       5.770946614622324E-7     -3.2502681211551076E-4
287.1919971085729         628.3071914650828        38                       -7.111636247708898E-7    -3.2226430440157795E-4
287.1028703719617         627.8616988026109        39                       6.824288667734988E-20    3.3544920277413577E-16
287.1135750083157         628.0189315070128        96                       6.763963780014702E-8     -3.1749465356622526E-4
287.11363357906447        627.9927260562793        96                       -1.0761694351963359E-7   -3.194074349781603E-4
287.1076886884817         627.9403151548119        41                       2.376528609071422E-8     -1.5276113807426763E-4
287.10767190920194        627.9141097040782        42                       5.5003333921566026E-8    -1.5192283346155113E-4
287.10768077159236        627.8879042533446        42                       2.1631031617449435E-8    -1.5172776645217665E-4
287.1135670576368         627.9665206055455        98                       -1.6385623760486686E-7   -3.183703331834046E-4
287.14281554087205        628.1704485761373        71                       9.348555525835836E-7     -7.975331750427415E-4
287.13855053130396        628.1484891756079        79                       -1.5157429519724974E-7   -7.608019481134845E-4
287.16184853556837        628.2057650643615        75                       8.2502639071718E-7       -8.045510081044301E-4
287.16195465065516        628.1787717342626        77                       1.8706435734822568E-6    -8.024060089632816E-4
287.1436737622276         628.1264008051606        78                       -1.2897532060595458E-6   -8.007523671491239E-4
287.1255031167463         628.0594444441539        83                       -4.631287074881701E-7    -5.814835400824368E-4
287.12634555724634        628.0345302530909        97                       -1.998145561416921E-7    -5.966889176412013E-4
287.14649747288024        628.0966552285073        84                       6.97176181689072E-7      -8.21236016362305E-4
287.1400604584116         628.0720466663797        87                       9.841599339493519E-8     -7.731939688214255E-4
287.17919346474946        628.2428901050936        119                      2.9136022035230947E-7    -5.99169112710247E-4
287.1806267666378         628.2163181804901        121                      5.869100500676328E-7     -5.751527171361937E-4
287.1919486511655         628.2809860143492        43                       -2.2021960702675565E-7   -3.2278329523074674E-4
287.1918712807502         628.2547805636157        51                       3.368307882002656E-7     -3.2514279247940084E-4
287.1979312148487         628.3596023665501        46                       -5.214275795977296E-7    -1.5620909951370653E-4
287.2028703719617         628.3858078173291        123                      NaN                      NaN
287.19793873088724        628.3333969158165        46                       2.0494742049898709E-7    -1.5724843938657443E-4
287.1979279795122         628.3071914650828        47                       -2.0159557368743229E-7   -1.5661502528684535E-4
287.1028703719617         627.8354933518774        49                       -2.3824499842616616E-19  -1.1320285732640053E-15
287.1028703719617         627.8092879011438        56                       4.058191020235005E-20    1.263439860082884E-15
287.1077154754619         627.8616988026109        50                       -3.1113447965862494E-8   -1.5293874312709307E-4
287.1259211480733         628.0095317605369        96                       -3.572707949774639E-7    -5.896829956664092E-4
287.1256574458344         627.9824065802106        99                       -7.324642724380463E-7    -5.845719920323305E-4
287.1134706683057         627.9403151548119        129                      8.640192844223234E-8     -3.1571602101895704E-4
287.11343375389015        627.9141097040782        131                      2.3639236188891836E-7    -3.14092820387876E-4
287.1134532511491         627.8879042533446        131                      8.284789429008277E-8     -3.1346645654044486E-4
287.1261518134284         627.9533870325977        101                      -2.901076596798007E-7    -5.94079952374451E-4
287.1616685455803         628.1476766893096        102                      1.944407152135302E-8     -8.09544972425008E-4
287.1812632789631         628.1880895300313        139                      5.818762224558897E-7     -5.638798885219617E-4
287.18061971436316        628.1604894574946        142                      -7.771047083819424E-7    -5.779076887608164E-4
287.1624354677187         628.1179710263782        110                      -2.728180292637239E-6    -8.001529220487549E-4
287.1651807519814         628.0944846558278        117                      -8.324627103101331E-7    -7.764664266245575E-4
287.14260242449114        628.0510800966237        115                      -4.0270161410226044E-7   -7.964138065592955E-4
287.1435058594769         628.024985462333         114                      -6.413631411479676E-7    -8.010526105189933E-4
287.15922318070034        628.0704136981192        116                      1.5925351844707906E-6    -8.224573725810013E-4
287.19178583354324        628.2285751128819        51                       -1.5447447215644132E-7   -3.2783810862374216E-4
287.19180059434547        628.2023696621484        52                       1.7031316326632244E-7    -3.280574011223864E-4
287.19790595341794        628.2809860143492        53                       -1.551634269397997E-8    -1.5646911286730885E-4
287.19787078504737        628.2547805636157        62                       6.294305417699018E-8     -1.5777451802020059E-4
287.2028703719617         628.3596023665501        153                      NaN                      NaN
287.2199991313928         628.3686376683156        154                      NaN                      NaN
287.22910198298064        628.3858078173287        155                      NaN                      NaN
287.2028703719617         628.3333969158165        159                      NaN                      NaN
287.2028703719617         628.3071914650828        158                      NaN                      NaN
287.10777465925736        627.8354933518774        57                       -3.261326421775732E-8    -1.549629465708163E-4
287.1028703719617         627.78308245041          56                       4.034957920547069E-21    3.6426142541084134E-16
287.10782990440924        627.8092879011438        68                       -5.0387261706771595E-9   -1.568710653691272E-4
287.1028703719617         627.7568769996764        58                       -1.580557226804673E-19   -1.1118913081963521E-15
287.1028703719617         627.7306715489427        64                       2.3253051511017776E-19   -1.3795512862026233E-15
287.11352959966206        627.8616988026109        133                      -1.418015461046232E-7    -3.158667032549408E-4
287.1438207327394         627.9984159433197        125                      9.23457396273586E-8      -8.029978461213595E-4
287.1453085170846         627.9701100075335        128                      -1.1706435327476972E-6   -8.105039464409119E-4
287.1260745109742         627.9256275584443        132                      8.706278868486688E-7     -5.934452523665169E-4
287.12576647483303        627.8999020012001        131                      1.657984723233295E-6     -5.865589947992283E-4
287.12582727899513        627.876489751402         134                      -9.389451865177315E-7    -5.875270780669276E-4
287.1468313274901         627.9396840710986        170                      4.978858772472062E-7     -8.225782771532314E-4
287.17867220605393        628.1345865883488        178                      -5.17871656214982E-7     -6.109724097034595E-4
287.19191272768995        628.1761642114146        60                       -3.6155957030123E-9      -3.2576896419213595E-4
287.1919911337082         628.149958760681         71                       1.7289410235954453E-7    -3.2314273754495523E-4
287.1789200675887         628.1080221911152        179                      -1.0862840883996286E-6   -6.049106197132346E-4
287.1794435996129         628.0825913696711        181                      1.5861504393693994E-6    -5.967651671510474E-4
287.16026037443567        628.0416924686956        147                      -1.7438410830146903E-7   -8.114971002772236E-4
287.16208491987555        628.0146622517316        150                      4.732991852968969E-8     -8.021928130124511E-4
287.17900489671234        628.0566660899736        188                      -2.1647226204972833E-7   -6.048308865517349E-4
287.1978319454078         628.2285751128819        62                       1.152028622239087E-8     -1.5926724253653658E-4
287.1978386548634         628.2023696621484        63                       5.709254115689573E-8     -1.5921462017161079E-4
287.2028703719617         628.2809860143492        160                      NaN                      NaN
287.2028703719617         628.2547805636157        191                      NaN                      NaN
287.22347637206707        628.3473494893595        159                      NaN                      NaN
287.2416765579928         628.3646208510112        194                      NaN                      NaN
287.256876508752          628.3858078173284        195                      NaN                      NaN
287.2263747178024         628.3217820333495        159                      NaN                      NaN
287.2873274432961         628.385807817328         201                      NaN                      NaN
287.22727213032135        628.2950335261195        161                      NaN                      NaN
287.1028703719617         627.7044660982091        65                       -5.325831174278824E-20   2.572399300276858E-16
287.1028703719617         627.6782606474754        66                       -2.3129136812332394E-19  7.738644339683977E-16
287.1028703719617         627.6520551967418        66                       -3.310080557755713E-20   -7.863918662772468E-16
287.1028703719617         627.6258497460082        77                       1.0197064260836752E-18   1.4174261719666365E-15
287.1136598040121         627.8354933518774        204                      -5.883762094221942E-8    -3.196624264005945E-4
287.10785550088366        627.78308245041          68                       -1.745781053709115E-9    -1.576028071623037E-4
287.11378134334626        627.8092879011438        206                      -8.280601666816987E-8    -3.2355462556519636E-4
287.10783231716266        627.7568769996764        69                       -2.233054738613974E-8    -1.5709106336177022E-4
287.10776833856386        627.7306715489427        79                       2.6153474300796704E-8    -1.5516268517713712E-4
287.1264258698161         627.8522666606165        163                      -1.6932615012871873E-8   -5.98264243760211E-4
287.1623453935287         627.9872808209572        164                      -1.0641104189374831E-6   -8.002991841607132E-4
287.1635027301208         627.9607818460302        166                      -1.4609061263048997E-6   -7.935616957907712E-4
287.1674414825076         627.9400561078276        214                      4.999675276597306E-7     -7.578945748684238E-4
287.1444452617577         627.9094967186642        169                      2.347121129202872E-6     -8.062021156978243E-4
287.1391487520775         627.8864701108488        171                      -1.2725480351286912E-7   -7.654535910076684E-4
287.1426732815762         627.8671660022565        174                      -1.3598727096306748E-6   -7.977244179669802E-4
287.162700553614          627.9177608419747        175                      1.584704714602509E-6     -7.977150278049926E-4
287.19200502566156        628.1237533099475        74                       -1.3690669981039786E-7   -3.224742804057837E-4
287.19788962456545        628.1761642114146        72                       -2.7691915981810517E-8   -1.5792160513383125E-4
287.1979252636647         628.149958760681         83                       -2.5712656771377373E-8   -1.5654718514946053E-4
287.19198819713847        628.0975478592137        74                       -2.685258450278297E-7    -3.2204547986343276E-4
287.19196777962753        628.0713424084801        75                       2.5599328818195514E-7    -3.2294788756440156E-4
287.17877599925896        628.0304674304159        224                      -5.266518298555833E-7    -6.07559223195005E-4
287.1795435005186         628.0030600467095        225                      -1.789564715284698E-8    -5.943397860353894E-4
287.1919927548788         628.0451369577464        86                       4.609599235535608E-8     -3.22577044438606E-4
287.2028703719617         628.2285751128819        228                      NaN                      NaN
287.2028703719617         628.2023696621484        227                      NaN                      NaN
287.32071267599133        628.3858078173275        232                      NaN                      NaN
287.2273203754989         628.2684557455498        192                      NaN                      NaN
287.22694763195585        628.2422884188476        228                      NaN                      NaN
287.2496327586623         628.338064565913         193                      NaN                      NaN
287.2705149442742         628.3596827701549        237                      NaN                      NaN
287.2521591137075         628.3096595421507        199                      NaN                      NaN
287.30295480469766        628.3570464046327        243                      NaN                      NaN
287.25209581363765        628.2821346020561        203                      NaN                      NaN
287.1028703719617         627.5996442952745        78                       -3.4254635558594916E-20  2.363041492204915E-16
287.1028703719617         627.5734388445409        89                       1.8549062873716457E-19   9.799532095145489E-16
287.1077170508744         627.7044660982091        80                       3.1726734513392616E-8    -1.5324148849452346E-4
287.1077172110161         627.6782606474754        81                       4.5712192007875085E-8    -1.529457838426593E-4
287.10775774130826        627.6520551967418        81                       -6.476637948788597E-9    -1.538686238833637E-4
287.10780159775993        627.6258497460082        90                       -1.121507639073409E-7    -1.558933276315723E-4
287.12620688323767        627.8267838092041        207                      -7.307156518457157E-7    -5.940190325349054E-4
287.11383765558986        627.78308245041          249                      -1.738384566422762E-8    -3.24982031408292E-4
287.1264859144584         627.7982920059331        249                      1.1850999503545021E-7    -5.988554616778512E-4
287.11378665140364        627.7568769996764        248                      -1.4444707680331118E-7   -3.2414122517393534E-4
287.1136458984864         627.7306715489427        254                      7.96753658897037E-8      -3.2011966589522714E-4
287.14390218599766        627.8419857976629        247                      3.9472577960262723E-7    -8.040192490558971E-4
287.1798119608335         627.9766548304184        258                      -3.8156136039067716E-7   -5.892103434685655E-4
287.1808761493154         627.9524337013381        260                      -1.1112478648023374E-6   -5.69769792050442E-4
287.17901652767597        627.9283623504359        262                      1.0080869315189107E-6    -6.023338996624565E-4
287.1591961164034         627.8876508300112        218                      1.0466039401879412E-7    -8.221372374978267E-4
287.16147697726007        627.8585118077858        219                      -1.8456920952999352E-8   -8.050189665852232E-4
287.1792726058491         627.9013149738106        268                      1.9637188804317202E-6    -5.980535483795218E-4
287.1979315781889         628.1237533099475        84                       -1.56914984346182E-8     -1.564131386657955E-4
287.2028703719617         628.1761642114146        229                      NaN                      NaN
287.2028703719617         628.149958760681         272                      NaN                      NaN
287.19792392886023        628.0975478592137        84                       -4.481142709809838E-8    -1.5616678808773869E-4
287.1979146481734         628.0713424084801        85                       4.307991466565928E-8     -1.5648087390756003E-4
287.19208391880323        628.0189315070128        87                       -2.0816612505774773E-7   -3.1992685429205496E-4
287.1921388658831         627.9927260562793        87                       2.5011443820316135E-8    -3.183809053135732E-4
287.19792600056036        628.0451369577464        96                       2.633450590647974E-9     -1.564831225285331E-4
287.22672016096215        628.2161470960434        228                      NaN                      NaN
287.22715406596893        628.1897939036706        230                      NaN                      NaN
287.35731499443204        628.3858078173271        278                      NaN                      NaN
287.33738230651244        628.3549032003995        242                      NaN                      NaN
287.39744457481123        628.3858078173265        283                      NaN                      NaN
287.2519110107602         628.2555178949726        236                      NaN                      NaN
287.2500471836381         628.2302586399973        235                      NaN                      NaN
287.2839211620103         628.3249409503188        243                      NaN                      NaN
287.27532877010674        628.2951800250563        290                      NaN                      NaN
287.31787029610206        628.3311358722668        243                      NaN                      NaN
287.2785954486808         628.2689626083023        292                      NaN                      NaN
287.44144113499624        628.385807817326         294                      NaN                      NaN
287.4896773043108         628.3858078173253        297                      NaN                      NaN
287.54256162144316        628.3858078173246        299                      NaN                      NaN